/*--------------------------------*- C++ -*----------------------------------*\
  =========                 |
  \\      /  F ield         | OpenFOAM: The Open Source CFD Toolbox
   \\    /   O peration     | Website:  https://openfoam.org
    \\  /    A nd           | Version:  10
     \\/     M anipulation  |
\*---------------------------------------------------------------------------*/
FoamFile
{
    format      ascii;
    class       volScalarField;
    location    "200";
    object      p;
}
// * * * * * * * * * * * * * * * * * * * * * * * * * * * * * * * * * * * * * //

dimensions      [0 2 -2 0 0 0 0];

internalField   nonuniform List<scalar> 
23845
(
-0.045393
-0.0506974
-0.176861
-0.171508
-0.0299247
-0.01537
-0.161076
-0.181834
0.00486769
-0.0379035
-0.0376686
-0.00225512
-0.0427313
0.00152161
-0.166879
-0.0371397
-0.0486624
-0.0473875
-0.0467394
-0.0348567
-0.0555575
-0.0378242
-0.102058
-0.00968931
-0.0345081
-0.0175941
-0.124082
-0.0255139
-0.184031
-0.0348673
-0.156294
-0.167335
-0.182912
-0.0472105
-0.00706538
-0.030436
-0.179832
-0.00644343
0.00704907
-0.0118764
-0.0458226
-0.0449874
-0.0413091
-0.0463336
-0.0105015
-0.0417082
-0.0331962
-0.0391033
-0.154831
-0.186509
-0.162879
-0.157628
-0.153477
-0.0193336
-0.170778
-0.0489671
-0.0636273
-0.173413
-0.0528673
-0.117271
-0.186715
-0.0474307
-0.0383682
-0.183353
-0.0100433
-0.0407635
-0.143808
-0.00379039
-0.00617795
-0.0458099
-0.184573
-0.182326
-0.0296612
-0.165963
-0.0106994
-0.167006
0.00504271
-0.004557
-0.172657
-0.0489595
-0.0995443
-0.158434
-0.054758
-0.178438
-0.170744
-0.00918587
-0.137406
-0.150892
-0.00532907
-0.0491574
-0.168405
-0.0438778
-0.185431
-0.0264317
-0.170039
-0.173567
-0.0453299
-0.0385828
-0.000418964
-0.028654
-0.0469949
-0.150006
-0.0319215
-0.193342
-0.18749
-0.177368
-0.0160627
-0.00781344
-0.145448
-0.0459007
-0.0395638
-0.007122
-0.173581
-0.0391866
-0.0322031
-0.0568247
-0.020248
-0.0373912
-0.183306
-0.186756
-0.00145229
-0.167151
-0.0470939
-0.186335
-0.150538
-0.0204255
-0.186335
-0.187489
-0.180897
-0.0547091
-0.181022
-0.0300429
-0.0334894
0.00213231
-0.0468781
-0.0381627
-0.195358
0.00427225
-0.143379
-0.00576666
-0.183579
-0.0442526
-0.011405
-0.0479962
-0.0410478
-0.0447059
-0.0476856
-0.164076
-0.184742
-0.0458174
-0.162411
-0.0355206
-0.116665
-0.0323114
-0.176998
-0.0421653
-0.0290957
-0.0208587
-0.182695
-0.178719
-0.0444727
-0.172831
-0.169559
-0.00679277
-0.0455205
-0.0458806
0.0031491
-0.175625
-0.0304258
-0.0439941
-0.000702417
-0.174374
-0.0125032
-0.187664
-0.0209551
-0.171858
-0.0403938
-0.0388983
0.00168938
-0.0179064
-0.0314941
-0.0263039
-0.162859
-0.0405959
-0.039831
-0.049317
-0.0469016
-0.178739
-0.188667
-0.044459
-0.189359
-0.0128198
-0.0131376
-0.0155841
-0.0410779
-0.0127612
-0.190616
-0.189707
-0.200799
-0.0394438
-0.0458036
-0.01998
-0.185558
-0.0304233
-0.182525
-0.171464
-0.174744
-0.00615362
-0.0720785
-0.0482854
-0.0487588
-0.180768
-0.0402739
-0.0310558
-0.157663
-0.170748
-0.0278232
-0.0483138
-0.190194
-0.181559
-0.0333284
-0.167577
-0.194716
-0.0421132
-0.0457249
-0.169218
-0.18767
-0.0121172
-0.0176452
-0.0469931
-0.0191231
-0.155271
-0.00936176
-0.012251
-0.0265177
-0.182908
-0.0152351
-0.163971
-0.0234554
-0.17443
-0.154713
-0.0442753
-0.17583
-0.0272479
-0.172808
-0.0379064
-0.0137779
-0.000752968
-0.171238
-0.166859
-0.0397554
-0.0190061
-0.167304
-0.0440795
-0.165132
-0.175341
-0.18629
-0.174012
-0.0309709
-0.0142474
-0.149326
-0.0230142
-0.186127
-0.0403111
-0.0421982
-0.00923511
-0.171136
-0.187996
-0.129354
-0.169133
-0.0100748
-0.178176
-0.160253
-0.0136941
-0.0398352
-0.0163618
-0.170342
-0.0127793
-0.196591
-0.0939539
-0.178708
-0.0194335
-0.165304
-0.041769
-0.0136647
-0.182807
-0.185597
-0.0225867
-0.173947
-0.172702
-0.172351
-0.15999
-0.183432
-0.174929
-0.172993
-0.0094172
-0.185446
-0.0157196
-0.0122039
-0.181085
-0.186469
-0.171901
-0.183149
-0.164814
-0.0186774
-0.16063
-0.185252
-0.161169
-0.0468804
-0.193666
-0.159822
-0.106521
-0.0462927
-0.00499379
-0.16449
-0.184626
-0.182058
-0.0304497
-0.177027
-0.0368898
-0.192013
-0.178523
-0.183779
-0.0309578
-0.170846
-0.00771343
-0.170746
-0.063367
-0.18442
-0.047776
-0.162929
-0.0427256
-0.166089
-0.0240351
-0.17962
-0.166056
-0.16195
-0.0484486
-0.0436884
-0.171417
-0.176776
-0.184115
-0.0389229
-0.0161447
-0.0139221
-0.204635
-0.0237977
-0.171746
-0.171542
-0.169672
-0.157765
-0.182939
-0.191662
-0.168073
-0.156349
-0.0074486
-0.0424663
-0.0316999
-0.171021
-0.173402
-0.183946
-0.00462921
-0.0457413
-0.0432758
-0.188086
-0.00318094
-0.180882
-0.0302887
-0.182503
-0.0139183
-0.0449252
-0.17061
-0.193566
-0.00213025
-0.023223
-0.172976
-0.166118
-0.168014
-0.0432455
-0.183758
-0.168515
-0.0242243
-0.0820978
-0.0138323
-0.0149474
-0.00546173
-0.0185725
-0.170965
-0.0460572
-0.171236
-0.148591
-0.0439661
-0.185522
-0.188992
-0.159762
-0.183304
-0.042176
-0.0108465
-0.0455264
-0.0260978
-0.164499
-0.131792
-0.172274
-0.178887
-0.0999502
-0.163725
-0.005021
-0.190569
-0.186267
-0.187294
-0.171443
-0.00414735
-0.157783
-0.183003
-0.0299497
-0.173362
-0.120969
-0.0407438
-0.0114342
-0.0487433
-0.182231
-0.0373857
-0.00198336
-0.171884
-0.186959
-0.0508096
-0.196865
-0.150398
-0.186182
-0.185354
-0.0146901
-0.0486561
-0.180673
-0.0482141
-0.0376226
-0.0228652
0.00163876
-0.0487501
-0.183806
-0.186608
-0.168053
-0.186277
-0.191725
-0.18754
-0.142931
-0.182176
-0.0322815
-0.09599
-0.0139958
-0.17975
-0.173665
-0.0300109
-0.198779
-0.0234416
-0.0117114
-0.179457
-0.0970133
-0.0286557
-0.173987
-0.0252713
-0.0850308
-0.169189
-0.189689
-0.0812781
-0.0194738
-0.00590606
-0.018745
-0.156153
-0.021923
-0.177811
-0.0313574
-0.00646196
-0.140845
-0.186909
-0.187711
-0.0252803
-0.0296982
-0.16991
-0.0269738
-0.0476517
-0.0593161
-0.102503
-0.15507
-0.0378922
-0.0454502
-0.159657
-0.00916513
-0.0079347
-0.159442
-0.185478
-0.0156501
-0.182293
-0.176401
-0.0821394
-0.184775
-0.0425183
-0.025546
-0.176052
-0.00721571
-0.0218826
-0.136521
-0.185681
-0.18395
-0.051483
-0.181734
-0.175009
-0.0412002
-0.0486003
-0.0290987
-0.184619
-0.155081
-0.181523
-0.175491
-0.149236
-0.0114559
-0.0213223
-0.119401
-0.176973
-0.178395
-0.0424753
-0.166824
-0.0258868
-0.0484062
-0.18288
-0.0260763
-0.158722
-0.166863
-0.186679
-0.0823619
-0.184287
-0.181515
-0.195152
-0.0258883
-0.110388
-0.0497442
-0.0492495
-0.0233403
-0.183683
-0.0255482
-0.173119
-0.179297
-0.0200416
-0.0869694
-0.0952851
-0.0419508
-0.0827567
-0.0368015
-0.0388754
-0.029116
-0.0358687
-0.0319225
-0.0104702
-0.182838
-0.0357218
-0.179094
-0.0902212
-0.0415019
-0.183378
-0.0259372
-0.026393
-0.170404
-0.172117
-0.0760112
-0.0340256
-0.0431505
-0.189782
-0.190817
-0.0261386
-0.187699
-0.0450465
-0.0238436
-0.154031
-0.0496822
-0.0137502
-0.0400195
-0.0209291
-0.184992
-0.167411
-0.170599
-0.0278704
-0.0280712
-0.00150237
-0.0415847
-0.165065
-0.18549
-0.0427774
-0.0308074
-0.0291653
-0.168449
-0.0269815
-0.12536
-0.168672
-0.054629
-0.0414342
-0.176153
-0.0436204
-0.0187255
-0.0215946
-0.0474584
0.00423638
-0.170882
-0.0299166
-0.0215859
-0.165248
-0.183076
-0.0331782
-0.170775
-0.023826
-0.162783
-0.0427882
-0.0586651
-0.0343617
-0.0747699
-0.0237468
-0.184951
-0.0363002
-0.0211688
-0.0197497
-0.0352229
-0.0280267
-0.0232854
-0.180077
-0.0316012
-0.0438565
-0.0334704
-0.0446627
-0.0459867
-0.0478822
-0.0462237
-0.0404905
-0.0417196
-0.0396407
-0.0830228
-0.02515
-0.00813744
-0.176062
-0.028277
-0.0408398
-0.0304169
-0.0424371
-0.0546656
-0.0465255
-0.0299751
-0.0470389
-0.0432101
-0.0341649
-0.0582215
-0.0429129
-0.0339968
-0.176736
-0.0324716
-0.0175979
-0.0197778
-0.176422
-0.183443
-0.193448
-0.180855
-0.0349695
-0.186933
-0.038759
-0.0466602
-0.0495094
-0.0489457
-0.0379437
-0.046933
-0.0295673
-0.0463145
-0.0264027
-0.1351
-0.0356313
-0.0402446
-0.0431139
-0.0401068
-0.0419005
-0.043964
-0.0293176
-0.0451505
-0.0248717
-0.0408254
-0.049323
-0.0384528
-0.0467266
-0.0413868
-0.04746
-0.0493455
-0.0315854
-0.0476378
-0.048128
-0.0344705
-0.0347319
-0.0480064
-0.0439359
-0.0423324
-0.040218
-0.0379823
-0.0332354
-0.0313474
-0.0443316
-0.0268606
-0.0456355
-0.0393242
-0.0469776
-0.0412358
-0.0477671
-0.0472199
-0.0470409
-0.0479576
-0.047547
-0.0476046
-0.0464919
-0.046695
-0.131021
-0.0181176
-0.0436192
-0.047905
-0.0471574
-0.0169337
-0.0417258
-0.046679
-0.0401334
-0.0379307
-0.0459783
-0.0457117
-0.0460452
-0.0322636
-0.0387761
-0.0410709
-0.0240081
-0.0290169
-0.0416148
-0.0435762
-0.0474416
-0.031698
-0.043292
-0.0325326
-0.0483374
-0.0216119
-0.0456465
-0.0238141
-0.0365099
-0.00633171
-0.0422144
-0.0461987
-0.186496
-0.0279955
-0.0437805
-0.0246836
-0.0409568
-0.0364762
-0.034947
-0.158318
-0.0417371
-0.0122312
-0.0331367
-0.0471582
-0.185258
-0.0385421
-0.0400284
-0.0319056
-0.0353808
-0.0283348
-0.0423717
-0.0448026
-0.0428546
-0.0386979
-0.0460129
-0.0433205
-0.0478497
-0.0429266
-0.0474882
-0.0386265
-0.0338597
-0.0350281
-0.0311258
-0.166256
-0.0417442
-0.0380469
-0.0223848
-0.0401575
-0.0489361
-0.0473146
-0.0476421
-0.166559
-0.0164266
-0.0420115
-0.0399084
-0.0457646
-0.0472982
-0.0410659
-0.0388841
-0.04666
-0.0438495
-0.0470283
-0.0426752
-0.0429599
-0.0425369
-0.0499435
-0.0467206
-0.0347164
-0.0484943
-0.0484949
-0.0432686
-0.0291686
-0.0431757
-0.0395748
-0.0471636
-0.043291
-0.0354602
-0.0451559
-0.0412164
-0.0350036
-0.0386861
-0.0339362
-0.0459068
-0.0384546
-0.0454342
-0.18737
-0.0429431
-0.0474364
-0.0410472
-0.0430884
-0.0493421
-0.0403182
-0.0464592
-0.0512559
-0.0334079
-0.046078
-0.0380655
-0.044323
-0.0410659
-0.0382153
-0.0313264
-0.0509336
-0.0458554
-0.045672
-0.0507191
-0.0396153
-0.0452499
-0.0461529
-0.178283
-0.0286767
-0.0244086
-0.00452431
-0.040741
-0.0372774
-0.0388864
-0.0388216
-0.0409291
-0.0490877
-0.0503586
-0.047757
-0.041285
-0.0382719
-0.0471722
-0.0356244
-0.0445868
-0.0407446
-0.0439379
0.00501324
-0.167055
-0.0124817
-0.0372361
-0.0463783
-0.0275229
-0.0373932
-0.0435789
-0.0409074
-0.0441573
-0.0469129
-0.0419268
-0.0431246
-0.0516826
-0.0468341
-0.0465058
-0.0415069
-0.0415818
-0.0378552
-0.0355563
-0.0465728
-0.0447321
-0.0374727
-0.0390652
-0.0361443
-0.0400982
-0.0384024
-0.0360589
-0.0423643
-0.049303
-0.0435834
-0.0410389
-0.0403272
-0.0341812
-0.0426448
-0.0462824
-0.0370648
-0.0549953
-0.0474949
-0.0438717
-0.0409025
-0.0350734
-0.0488352
-0.123492
-0.0450675
-0.0432121
-0.0461073
-0.0362679
-0.0477181
-0.038025
-0.0414674
-0.191413
-0.0200454
-0.0464016
-0.0424518
-0.0407554
-0.0228923
-0.0387001
-0.0403048
-0.0412954
-0.0479729
-0.0470634
-0.182034
-0.194505
-0.0472545
-0.0447324
-0.0272164
-0.104645
-0.0415206
-0.171018
-0.0426241
-0.0388533
-0.0504937
-0.0510114
-0.0436948
-0.0423744
-0.0431642
-0.022318
-0.0381747
-0.0612711
-0.0433069
-0.029576
-0.0407616
-0.0413725
-0.0455273
-0.0435827
-0.0414681
-0.0495196
-0.0398217
-0.0479466
-0.0394591
-0.0367947
-0.0333322
-0.0481995
-0.0409653
-0.03811
-0.0463591
-0.0345219
-0.0387889
-0.0398091
-0.0354412
-0.037263
-0.0480571
-0.0493191
-0.0478499
-0.0326275
-0.0462682
-0.0416356
-0.0468235
-0.0368815
-0.0419811
-0.0439843
-0.0423133
-0.0483839
-0.129421
-0.0365487
-0.0469856
-0.0454673
-0.0436918
-0.0491724
-0.0367277
-0.0390629
-0.0217933
-0.0343501
-0.0358815
-0.0425782
-0.0356404
-0.0327694
-0.0358097
-0.0360103
-0.0458386
-0.0471182
-0.0436101
-0.0362465
-0.0496955
-0.0394843
-0.0340964
-0.0395227
-0.0351836
-0.0326517
-0.0341588
-0.0403063
-0.0490192
-0.0484196
-0.0417553
-0.0447699
-0.0407239
-0.0454533
-0.199764
-0.0349781
-0.177775
-0.0386732
-0.0319491
-0.188235
-0.0357518
-0.00880877
-0.0137025
-0.0386469
-0.0414456
-0.038969
-0.0382002
-0.0441134
-0.0310387
-0.183855
-0.0378366
-0.0463305
-0.0458727
-0.0463958
-0.0720368
-0.0355076
-0.0367245
-0.0378212
-0.0463194
-0.0444669
-0.0306625
-0.0147389
-0.0231708
-0.0254508
-0.021897
-0.0378948
-0.0419614
-0.0383134
-0.0465107
-0.0535163
-0.031302
-0.0421795
-0.0283279
-0.0391249
-0.0371069
-0.0326484
-0.0407896
-0.0370294
-0.0490632
-0.0396856
-0.0455302
-0.0417309
-0.0453065
-0.0470723
-0.0466221
-0.0474652
-0.0477728
-0.0438398
-0.0405765
-0.045192
-0.0774498
-0.0270304
-0.0370704
-0.0409848
-0.036835
-0.0342373
-0.0480869
0.00429801
-0.0440985
-0.0483099
-0.0458116
-0.0454682
-0.0501621
-0.0437974
-0.0259275
-0.0421415
-0.0354707
-0.041932
-0.0473571
-0.0174068
-0.0436585
-0.0287631
-0.0443948
-0.179819
-0.173439
-0.0414946
-0.0411832
-0.039882
-0.0355028
-0.0487454
-0.0360257
-0.0380365
-0.0433087
-0.0402137
-0.042291
-0.0446251
-0.0458593
-0.194102
-0.0468505
-0.0380422
-0.0388882
-0.0475433
-0.032516
-0.0468948
-0.0468526
-0.186683
-0.0471241
-0.0249016
-0.0419511
-0.0461472
-0.0322833
-0.0413805
-0.0363827
-0.0354441
-0.0259406
-0.0453221
-0.0433131
-0.0955718
-0.0355315
-0.0360424
-0.0351937
-0.0878392
-0.0436882
-0.037442
-0.0237906
-0.0393946
-0.00675013
-0.0382779
-0.0431172
-0.0500458
-0.183757
-0.040848
-0.0396602
-0.0421109
-0.036454
-0.0228923
-0.0392547
-0.0421844
-0.0344337
-0.0473714
-0.0448597
-0.0452418
-0.0350538
-0.0264956
-0.0472004
-0.0343387
-0.0356161
-0.0471284
-0.0470603
-0.15186
-0.181946
-0.0347806
-0.0408002
-0.0357704
-0.0396895
-0.0470041
-0.0398322
-0.0378711
-0.038329
-0.169558
-0.0350564
-0.00641146
-0.0351765
-0.0476089
-0.0400862
-0.0469468
-0.0401765
-0.0349575
-0.0359487
-0.0491615
-0.0330428
-0.0426894
-0.0390476
-0.0440288
-0.0449241
-0.0483508
-0.0408173
-0.0466422
-0.0354344
-0.0456724
-0.0441538
-0.0470815
-0.0477994
-0.0471179
-0.0474897
-0.0379614
-0.0332232
-0.0423107
-0.0383168
-0.0364323
-0.0509116
-0.0442541
-0.0338106
-0.050996
-0.0577771
-0.0499912
-0.0444317
-0.0495401
-0.0228094
-0.0440364
-0.0221345
-0.0329891
-0.0356783
-0.00445744
-0.0295751
-0.0247113
-0.0364126
-0.0308464
-0.0469741
-0.0376195
-0.0394944
-0.048329
-0.0390351
-0.0375691
-0.0347052
-0.040163
-0.0321304
-0.202
-0.0335537
-0.0410875
-0.0353331
-0.0120338
-0.0346756
-0.0451114
-0.039923
-0.169305
-0.047291
-0.0429794
-0.0280176
-0.0495525
-0.0355884
-0.0360059
-0.0660158
-0.0463117
-0.0468133
-0.0508159
-0.0448373
-0.0476293
-0.034637
-0.0377841
-0.182811
-0.0345803
-0.0310704
-0.0439823
-0.035703
-0.182355
-0.171411
-0.026404
-0.0369298
-0.0375717
-0.05063
-0.0378321
-0.0385644
-0.038827
-0.0462888
-0.0281249
-0.034504
-0.0466589
-0.0278366
-0.0502746
-0.0466589
-0.0468816
-0.0342421
-0.188761
-0.0456743
-0.0445694
-0.0348522
0.00356653
-0.187121
-0.0379721
-0.181782
-0.0333381
-0.032074
-0.0468643
-0.0486918
-0.035302
-0.0482492
-0.0445165
-0.0491783
-0.0408327
-0.0369452
-0.0442557
-0.0487146
-0.0329722
-0.0377269
-0.0383327
-0.00706138
-0.0466495
-0.0470288
-0.0457694
-0.0427359
-0.0429126
-0.0478269
-0.0422848
-0.0425979
-0.0367706
-0.0486157
-0.0407835
-0.0074508
-0.0429574
-0.035527
-0.0352599
-0.177093
-0.0308017
-0.0358157
-0.007656
-0.0340241
-0.0469098
-0.0460954
-0.0296505
-0.0463832
-0.110592
-0.183191
-0.0273303
-0.0434468
-0.00294724
-0.183802
-0.0439288
-0.0442497
-0.0455459
-0.0332004
-0.0683579
-0.0357034
-0.0384404
-0.172648
-0.156988
-0.032923
-0.0280092
-0.0292564
-0.0422148
-0.179778
-0.039823
-0.0395652
-0.0469981
-0.0439803
-0.0220249
-0.0366129
-0.109768
-0.0128389
-0.177977
-0.0351599
-0.00918932
-0.18426
-0.0378025
-0.0384377
-0.0427168
-0.174256
-0.032772
-0.0352478
-0.0823637
-0.0487612
-0.0307491
-0.0464932
-0.0401053
-0.0471631
-0.046295
-0.0349496
-0.0344725
-0.0307526
-0.0248993
-0.0461439
-0.0391091
-0.0480378
-0.0350722
-0.0435613
-0.0455892
-0.0336565
-0.104054
-0.029923
-0.0343256
-0.0446821
-0.0312221
-0.0463106
-0.0437071
-0.0456395
-0.179629
-0.0330214
-0.0348155
-0.184311
-0.031968
-0.0338877
-0.0428032
-0.0361932
-0.0359486
-0.0556345
-0.0401512
-0.0474064
-0.0428985
-0.0203347
-0.0322507
-0.0377315
-0.0193153
-0.0311806
-0.0395935
-0.0385781
-0.186251
-0.0463374
-0.0421031
-0.0463767
-0.117564
-0.0396699
-0.043232
-0.0486247
-0.0470432
-0.0454293
-0.0475042
-0.0349812
-0.0353135
-0.0437502
-0.0333921
-0.0425599
-0.149643
-0.174582
-0.0381331
-0.0476845
-0.0366475
-0.0443182
-0.0331707
-0.0352949
-0.0467307
-0.045386
-0.0457277
-0.182292
-0.0225411
-0.164032
-0.0381886
-0.0331506
-0.0902412
-0.0449421
-0.0231094
-0.0442421
-0.0415043
-0.0395664
-0.0452962
-0.0319253
-0.035885
-0.0345122
-0.0471227
-0.0472597
-0.045907
-0.172132
-0.0431525
-0.0493657
-0.0427643
-0.0360351
-0.173466
-0.0401643
-0.0328707
-0.0922936
-0.0345509
-0.0312569
-0.0331064
-0.0716502
-0.18108
-0.185463
-0.0440327
-0.0350875
-0.0375293
-0.033938
-0.09134
-0.033038
-0.0334681
-0.0415035
-0.0343481
-0.0494341
-0.097129
-0.0408054
-0.0299592
-0.0469176
-0.0476589
-0.0258215
-0.034418
-0.0487142
-0.182519
-0.0289692
-0.0330698
-0.0361707
-0.0252957
-0.042741
-0.0250926
-0.0356927
-0.17857
-0.0192097
-0.00390356
0.00300455
-0.178693
-0.0320147
-0.0466106
-0.0488151
-0.18073
-0.0359136
-0.0417175
-0.0336376
-0.182306
-0.0370566
-0.0330363
-0.0450735
-0.0279344
-0.023175
-0.0312865
-0.136567
-0.0369557
-0.0319017
-0.0350383
-0.0705587
-0.0333003
-0.0498084
-0.0400737
-0.0297021
-0.0245889
-0.178292
-0.032242
-0.0355145
-0.021196
-0.0394718
-0.177186
-0.185728
-0.182636
-0.160256
-0.094213
-0.0311613
-0.0284634
-0.0337853
-0.0331462
-0.0466128
-0.0752192
-0.0351447
-0.163713
-0.183712
-0.0391798
-0.0385733
-0.148943
-0.188288
-0.04525
-0.148113
-0.0192757
-0.115
-0.0328129
-0.0276656
-0.192475
-0.00462481
-0.150742
-0.0111309
-0.0231213
-0.0476075
-0.18462
-0.185724
-0.0642385
-0.0433362
-0.0460464
-0.19259
-0.0400846
-0.0393207
-0.0286701
-0.132099
-0.0283909
-0.0339997
-0.0408275
-0.0302144
-0.0311076
-0.00626185
-0.190632
-0.157993
-0.176086
-0.183736
-0.0370889
-0.0484793
-0.0208394
-0.0170207
-0.0150737
-0.0355672
-0.186415
-0.00737727
-0.0498392
-0.0636385
-0.164233
-0.0410629
-0.0297876
-0.173874
-0.0353444
-0.0392396
-0.0483437
-0.0266103
-0.0444101
-0.00603792
-0.026508
-0.166451
-0.0386448
-0.0484802
-0.0316956
-0.0390047
-0.175913
-0.0216815
0.0011435
-0.179924
-0.0332787
-0.0382222
-0.0314312
-0.186648
-0.0465727
-0.193325
-0.17839
-0.18388
-0.049368
-0.0372696
-0.0806303
-0.0590089
-0.032982
-0.0364867
-0.0453384
-0.0456097
-0.0876854
-0.042209
-0.191043
-0.0393012
-0.178196
-0.0485532
-0.180134
-0.0300802
-0.0354404
-0.0485467
-0.0450657
-0.18581
-0.0254548
-0.17339
-0.177022
-0.0451574
-0.0408053
-0.0449408
-0.186935
-0.0314387
-0.0234643
-0.0276773
-0.0297677
-0.0915456
-0.0221127
-0.169678
-0.0637008
-0.169485
-0.179779
-0.0200783
-0.0297807
-0.0356123
-0.170388
-0.041272
-0.0591573
-0.0131657
-0.0331333
-0.0462447
-0.0372743
-0.183381
-0.0355723
-0.0188132
-0.0893076
-0.036962
-0.0958684
-0.0640373
-0.184034
-0.16879
-0.0528728
-0.162823
-0.161159
-0.0248427
-0.0450752
-0.185553
-0.0305783
-0.169747
-0.000408564
-0.184568
-0.187236
-0.0472854
-0.0450268
-0.0477243
-0.0481009
-0.0469943
-0.0289791
-0.0435085
-0.0232552
-0.0643354
-0.0286439
-0.0437832
-0.0229084
-0.0305365
-0.158811
-0.190169
-0.173582
-0.176486
-0.182557
-0.0746644
-0.186162
-0.0362496
-0.0197335
-0.186903
-0.0326807
-0.164314
-0.0402472
-0.0449895
-0.182069
-0.0292321
-0.00107494
-0.176726
-0.03686
-0.123005
-0.044009
-0.0389865
-0.164722
-0.0464475
-0.0672277
-0.0465307
-0.0471482
-0.0871823
-0.197487
-0.046513
-0.0409215
-0.0456874
-0.0455772
-0.0382573
-0.167544
-0.0433591
-0.0449536
-0.0734393
-0.00254434
-0.185456
-0.0398986
-0.0258793
-0.0371654
-0.176136
-0.18399
-0.181195
-0.188031
-0.121023
-0.0281305
-0.144838
-0.0162177
-0.0223883
-0.167247
-0.00888385
-0.180528
-0.0837902
-0.0989896
-0.18472
-0.0413782
-0.141477
-0.0481886
-0.0359939
-0.0472277
-0.0422588
-0.170644
-0.0468787
-0.0435142
-0.0438693
-0.168018
-0.0215877
-0.16227
-0.177099
-0.0445277
-0.189053
-0.184886
-0.106436
-0.016812
-0.176462
-0.0501842
-0.00331556
-0.0244188
-0.182027
-0.0359201
-0.0224094
-0.0341443
-0.0391027
-0.0393103
-0.171327
-0.0494648
-0.0457657
-0.0403941
-0.0312729
-0.0861671
-0.0410481
-0.0466927
-0.0326455
-0.0198409
-0.0461097
-0.0447677
-0.186924
-0.0372449
-0.0204942
-0.186537
-0.0644365
-0.0801846
-0.0381576
-0.0225047
-0.169623
-0.0852843
-0.154586
-0.0690395
-0.149942
-0.147164
-0.0259048
-0.170497
-0.142333
-0.0498001
-0.182409
-0.0157309
-0.182728
-0.179993
-0.185459
-0.0364254
-0.145738
-0.202106
-0.00254365
0.00503774
-0.0163006
-0.166634
-0.17168
-0.167572
-0.190171
-0.12523
-0.0456371
-0.024999
-0.0965928
-0.182116
-0.172555
-0.0452646
-0.0695482
-0.0374738
-0.178357
-0.184497
-0.184324
-0.182011
-0.18138
-0.171974
-0.0419446
-0.162648
-0.178861
-0.193733
-0.126069
-0.178308
-0.0405708
-0.175057
-0.183017
-0.0494696
-0.163707
-0.136367
-0.0498795
-0.171077
-0.0434943
-0.197418
-0.166778
-0.0611005
-0.0752127
-0.171852
-0.0415619
-0.0693845
-0.173716
-0.0385492
-0.105984
-0.0461146
-0.046286
-0.0298243
-0.000615608
-0.0372808
-0.0242927
-0.0245821
-0.0425685
-0.0211327
-0.0351855
-0.109475
-0.0141195
-0.0340715
-0.191908
-0.179787
-0.0168484
-0.0435992
-0.0462486
-0.166635
-0.018896
-0.174538
-0.140678
-0.0365401
-0.150281
-0.177956
-0.168031
-0.0291824
-0.0469614
-0.127461
-0.151496
-0.183567
-0.0468586
-0.0149566
-0.00349499
-0.036648
-0.124576
-0.0397677
-0.0217838
-0.0411375
-0.183589
-0.0189242
-0.0393521
-0.0446236
-0.0439062
-0.183367
-0.0451616
-0.0458902
-0.0438582
-0.119737
-0.0466379
-0.168832
-0.0475734
-0.0420488
-0.0467311
-0.0397816
-0.182163
-0.186786
-0.174472
-0.195089
-0.0388875
-0.0388443
-0.148982
-0.00434967
-0.185805
-0.047718
-0.0454108
-0.0481081
-0.0274373
-0.159132
-0.0141887
-0.038323
-0.196635
-0.176621
-0.178806
-0.117796
-0.0499021
-0.182696
-0.182686
-0.0469439
-0.0375564
-0.153241
-0.0414577
0.00807272
-0.170348
-0.00644439
-0.106289
-0.0757164
-0.158858
-0.0163035
-0.0480507
-0.144077
-0.0371817
-0.0383095
-0.0490833
-0.0968317
-0.0191839
-0.169642
-0.0349706
-0.164301
-0.0042516
-0.0168504
-0.0458838
-0.0438435
-0.13304
-0.164067
-0.0369406
-0.049415
-0.0470657
0.00756478
-0.0383948
-0.0446396
-0.161708
-0.190022
-0.163164
-0.00207564
-0.022439
-0.182539
-0.168623
-0.160968
-0.191037
-0.150772
-0.0438248
-0.117067
-0.141219
-0.0305177
-0.159801
-0.0313574
-0.0319985
-0.0464517
-0.128313
0.00718793
-0.179887
0.00967305
-0.183669
-0.170142
-0.0217717
-0.159226
-0.0447738
-0.184077
-0.0869509
-0.046644
-0.0381179
-0.160198
-0.180323
-0.0469603
-0.193401
-0.0702352
-0.0155378
-0.185686
-0.0460874
-0.187697
-0.0368997
-0.0279908
-0.0452461
-0.14991
-0.0402619
-0.172653
-0.037264
-0.0195482
0.00663338
0.0105046
-0.0160581
-0.0469033
-0.184428
-0.063507
-0.0419325
-0.0410708
-0.0412688
-0.0355868
-0.0378111
-0.0138552
-0.143785
-0.0309506
-0.0108173
-0.0427831
-0.0356429
-0.047343
-0.179129
-0.0292841
-0.0368376
-0.036242
-0.17695
-0.0325006
-0.0411606
-0.181051
-0.120358
0.00602604
0.0109187
-0.184219
-0.157993
-0.184058
-0.0132577
-0.0264916
-0.18618
-0.0453665
-0.0122315
0.00539915
-0.100928
-0.0578474
-0.177206
-0.0466737
-0.155727
-0.153112
-0.171953
-0.166837
-0.0384128
-0.0259931
-0.0202098
-0.182216
-0.0277557
-0.0343453
-0.0393349
-0.0416175
-0.0450234
-0.0373124
-0.0207953
-0.0495385
-0.0444564
-0.16931
-0.0471637
-0.154354
-0.191108
-0.0745312
-0.029231
-0.148229
-0.0528335
-0.184726
-0.179238
-0.0436395
-0.0257479
-0.00980816
-0.0363388
-0.121083
0.00292368
-0.180456
-0.0478984
-0.0371591
-0.025152
-0.0115515
-0.173249
-0.0446164
-0.0327381
-0.176879
-0.173315
-0.0176651
-0.152461
-0.170282
-0.161207
-0.163712
-0.194874
-0.184649
-0.0109448
-0.0991757
-0.0379869
0.00980031
-0.0485742
-0.0287268
-0.0259946
-0.0435257
-0.0621715
-0.185478
-0.15269
-0.022873
-0.187306
-0.0129205
-0.0239842
0.00970863
-0.142258
-0.19914
-0.0457291
-0.032009
-0.182968
-0.180959
-0.193538
-0.140717
-0.0311952
-0.110071
0.00439301
0.00968181
-0.0438829
0.00478212
-0.17628
-0.021733
-0.0500124
-0.0887754
-0.195097
-0.15511
-0.0313594
-0.0304256
-0.118705
-0.17331
-0.179296
-0.0391568
-0.0392458
-0.183429
-0.180277
-0.152335
-0.182425
-0.150801
-0.186206
-0.0173607
-0.0484596
-0.0482671
-0.183441
-0.00364644
-0.0483771
-0.0494912
-0.0976993
-0.037013
-0.155637
-0.183937
-0.169901
-0.0115815
-0.110407
-0.112521
-0.192185
0.00511464
-0.176999
-0.10148
-0.187766
-0.0320983
-0.101358
-0.153669
-0.196337
0.00959349
-0.042765
-0.0442728
-0.0265984
-0.04502
-0.190644
-0.038251
-0.173412
-0.172426
-0.192437
-0.0244096
-0.172799
-0.0167557
-0.175311
-0.0423959
-0.0844661
-0.0229872
-0.01616
-0.155811
-0.182809
0.0101174
-0.148751
-0.0511242
-0.0380406
0.00307445
0.00921541
-0.173365
-0.196759
-0.0210455
-0.0118479
-0.0356002
-0.0479227
-0.0260757
-0.0209875
-0.038533
-0.0446715
-0.17362
-0.0503664
-0.188097
-0.00569981
-0.189253
-0.175731
-0.0590213
-0.127815
-0.188192
-0.0124764
-0.0331316
-0.0212816
-0.0281726
-0.201239
-0.0450376
-0.0322307
-0.152542
-0.183645
-0.170907
-0.0374363
-0.192117
-0.0389381
-0.0236656
-0.03512
-0.187327
-0.187784
-0.0063441
-0.178976
-0.0468529
-0.159245
-0.156912
-0.192418
-0.04446
-0.15473
-0.0226012
-0.00357642
-0.188711
-0.182477
-0.0396161
-0.0295894
-0.182076
-0.161303
0.00864501
0.00283332
-0.140485
-0.185812
0.00890318
-0.0193499
-0.186416
-0.0462336
-0.124229
0.00865803
-0.178871
-0.161355
-0.0357354
-0.149527
-0.179522
-0.0325512
-0.143413
-0.157846
-0.0725702
-0.141668
-0.0367513
-0.0469423
-0.046605
0.00507138
-0.0244028
-0.174816
-0.0462118
-0.179218
-0.163245
-0.00766198
-0.0128759
-0.0179955
0.00744755
0.00806448
0.00217649
-0.0453713
-0.046835
-0.0250374
-0.0485214
-0.0351766
-0.0331556
-0.0382798
-0.0351674
-0.0345676
-0.0229154
-0.169361
-0.188734
-0.180827
-0.173869
-0.0461313
-0.189608
-0.00966
-0.193267
0.000929572
-0.0389058
-0.117601
-0.166947
-0.0497713
-0.0163437
-0.0459486
-0.195408
-0.0280866
-0.178524
-0.0264012
-0.0494358
0.0113691
-0.0796275
-0.175731
-0.0383378
-0.050461
-0.0361244
-0.0456103
-0.0464601
-0.0530956
-0.0358037
-0.0460183
0.00712762
-0.0185634
-0.0436711
-0.0688482
-0.177088
-0.188863
-0.0405541
-0.184262
-0.0752302
-0.183291
-0.0400096
-0.155403
-0.161417
-0.185608
-0.0345375
-0.180704
-0.0959195
-0.177767
-0.19097
-0.143473
-0.0291938
-0.180039
-0.0470967
-0.18667
-0.150525
-0.185947
-0.0499086
-0.0418473
-0.147665
-0.175853
-0.0125713
-0.184248
-0.16836
-0.0424217
0.0107046
0.00476099
-0.00693459
-0.0466641
-0.0319021
-0.0188374
-0.175187
-0.0460241
-0.131445
-0.151583
-0.180686
-0.00706097
-0.152231
-0.145327
-0.19397
-0.0422381
-0.170805
-0.0211836
-0.180734
-0.0891574
-0.149534
4.80623e-05
-0.025384
8.18052e-05
-0.1854
-0.174953
-0.0389653
-0.0260704
-0.183076
-0.0771472
-0.00882639
-0.00942528
-0.0444561
-0.17477
-0.0320669
-0.0494084
-0.176885
-0.174312
-0.0357055
-0.174186
-0.0663076
-0.174005
-0.0394261
-0.19543
-0.177727
-0.0228925
-0.0370531
-0.177028
-0.170635
-0.0490147
-0.194257
-0.153469
-0.182208
-0.176384
-0.180889
-0.115167
-0.00789177
-0.18056
-0.0283074
-0.0163163
-0.0238432
-0.0289541
-0.0459666
-0.189195
-0.154568
-0.183697
-0.0768111
-0.0233653
-0.145005
-0.021757
-0.0401026
-0.196136
-0.152179
0.006488
-0.010965
-0.152273
-0.0171693
-0.174254
-0.0275555
-0.178406
-0.02951
-0.179627
-0.000660567
-0.169002
-0.0398069
-0.0321708
-0.160627
-0.191795
-0.163843
-0.00118041
-0.189842
-0.0484595
-0.179311
-0.113386
-0.0371298
-0.0451626
-0.0338705
-0.00395385
-0.0512417
-0.112142
-0.0412245
-0.138193
-0.172536
-0.00048741
-0.176127
-0.0439419
-0.136769
-0.0242658
-0.0135196
0.000783825
-0.0316297
-0.179116
-0.181642
-0.0399497
-0.0428602
-0.00548402
-0.0466302
-0.0506045
-0.0468797
-0.0191771
-0.0463404
-0.0464569
-0.045654
-0.0382123
-0.158663
-0.159285
-0.00275055
-0.0476033
-0.12872
-0.183334
-0.034192
-0.02941
0.00415175
-0.186817
-0.0330833
-0.0301447
0.00858238
-0.183676
-0.0354216
-0.0236409
-0.0495206
-0.0396615
-0.188812
-0.152389
-0.0299873
-0.194158
-0.187315
-0.0466613
-0.15045
-0.181756
-0.0320485
-0.168764
-0.0439337
0.0024728
-0.0434418
-0.188815
-0.0361867
-0.145448
-0.0970107
-0.0362012
-0.0315238
-0.197229
-0.0456473
-0.175031
-0.0369485
-0.110413
-0.133916
-0.0469934
-0.179293
-0.163169
-0.0469011
-0.0462896
-0.172097
-0.0494534
-0.159833
-0.189032
-0.184362
-0.0426723
-0.0467493
-0.0363932
-0.182663
-0.0144648
-0.00308123
-0.0467763
-0.0356743
-0.0368916
-0.0470652
-0.0440884
-0.0099782
-0.12939
-0.180579
-0.0376312
0.00204686
-0.172198
-0.0407912
-0.0454057
-0.0461955
-0.151913
-0.0354457
-0.0388613
-0.176339
-0.037522
-0.0359102
-0.0470176
-0.136568
-0.0364184
-0.045685
-0.185174
-0.0457843
-0.18172
-0.0378516
-0.0374659
-0.180259
-0.168411
-0.185782
-0.0466219
-0.0426883
-0.0497149
-0.189184
-0.168979
-0.0360565
-0.0391939
-0.0471101
-0.181822
0.0036877
-0.00285932
-0.0416667
-0.0322053
-0.0387671
-0.036105
-0.162788
-0.0447812
-0.0296314
0.00450094
-0.0375893
-0.180208
-0.142083
-0.203728
-0.0414196
-0.0472238
-0.180607
-0.0237501
-0.0125675
-0.0473819
-0.0265779
-0.027367
-0.0378584
-0.0459892
-0.0458864
-0.0468953
-0.181249
-0.187135
-0.19988
-0.148549
-0.0250355
-0.165022
-0.187066
-0.0357945
-0.160749
-0.197587
-0.165215
-0.0654045
-0.0402989
-0.172945
-0.0465187
-0.168419
-0.00116843
-0.033713
-0.0492269
-0.0428142
-0.169652
-0.100776
-0.155668
-0.0102086
-0.0334189
-0.0309651
-0.0384531
-0.029882
-0.0460744
-0.0395343
-0.179139
-0.0423759
-0.17644
-0.0351548
-0.0455963
-0.177123
2.57401e-05
-0.0436659
-0.0395731
-0.0385175
-0.0666967
-0.198344
-0.000676294
-0.0409092
-0.125043
-0.0429684
-0.146846
-0.172648
-0.0599044
-0.0488166
0.00873528
-0.13751
-0.160095
-0.0245087
0.00143644
-0.183754
-0.00225546
-0.0281956
-0.0365064
-0.0466704
-0.181352
-0.0374749
-0.156165
-0.0468031
-0.0331707
-0.034421
-0.00658209
-0.0257129
-0.0493484
-0.00126047
0.00764511
0.00713649
-0.174039
-0.180146
0.0077898
-0.0374302
-0.153225
-0.0622838
-0.0279907
-0.178977
-0.163654
-0.183253
-0.0297012
-0.170556
-0.0478548
-0.147377
-0.00196551
-0.176632
-0.193024
-0.183656
0.00459179
-0.0358883
-0.186331
-0.206525
-0.203607
-0.0460738
-0.18447
0.00321461
-0.0179148
-0.177437
-0.176361
-0.0353701
-0.140574
-0.0399819
-0.00850287
-0.18698
-0.199336
-0.176015
-0.0162135
0.00254247
-0.0768203
-0.0444165
0.00181805
-0.0522202
-0.166806
-0.176159
-0.183395
0.0063777
-0.0410162
-0.184617
-0.130864
-0.185941
-0.0362498
-0.153111
-0.132168
-0.000800179
-0.00310419
-0.0462754
-0.0326739
-0.024073
-0.158198
-0.070323
-0.021094
-0.0269503
-0.0176617
-0.000133366
-0.038229
-0.183982
-0.184343
0.00462495