/*--------------------------------*- C++ -*----------------------------------*\
  =========                 |
  \\      /  F ield         | OpenFOAM: The Open Source CFD Toolbox
   \\    /   O peration     | Website:  https://openfoam.org
    \\  /    A nd           | Version:  10
     \\/     M anipulation  |
\*---------------------------------------------------------------------------*/
FoamFile
{
    format      ascii;
    class       surfaceScalarField;
    location    "200";
    object      phi;
}
// * * * * * * * * * * * * * * * * * * * * * * * * * * * * * * * * * * * * * //

dimensions      [0 3 -1 0 0 0 0];

internalField   nonuniform List<scalar> 
38623
(
0.177982
-0.186334
0.0730942
-0.0647466
-0.0822644
0.0819135
0.169401
-0.16904
-0.00145319
0.0037239
0.0759094
-0.0781799
0.00236082
-0.00174851
-0.0224922
0.021877
0.0276678
0.105111
-0.0636039
-0.0691633
-0.0791537
-0.141193
0.134305
0.0860423
0.0934048
-0.0748948
0.0671749
-0.0856837
-0.00843545
0.0109318
-0.00928123
0.006785
0.0280502
-0.00623741
-0.149679
-0.0185985
0.050432
-0.227059
0.19522
0.119507
0.143601
-0.150652
-0.112457
-0.136754
0.123013
0.00153597
0.0122064
0.22624
0.0114122
-0.23163
-0.00602124
-0.139104
0.127597
-0.0207861
0.0322952
0.0347399
0.0586274
-0.0618002
-0.0315671
0.0161794
-0.176788
-0.0173697
0.177977
0.0170795
0.230908
-0.0245689
-0.223418
-0.00258418
0.219715
-0.00973182
-0.207404
-0.00516922
-0.00543269
0.213207
-0.202604
0.213083
-0.143021
0.119705
-0.189766
0.149877
0.096408
-0.0362985
-0.20999
0.137869
0.0951593
-0.113523
0.218184
-0.189236
0.0207247
-0.0496733
-0.154983
0.1655
-0.144871
0.134351
0.0209023
0.191042
-0.0188052
-0.193141
-0.0980329
0.427969
-0.389549
0.0596136
-0.00155501
-0.159708
-0.03268
0.193944
0.0993229
-0.0796957
-0.252469
0.23284
-0.00989102
-0.00130808
0.00219711
0.00900216
-0.145238
0.155296
0.203028
-0.0177661
-0.0207337
0.0248959
0.0136056
0.00792013
-0.0016785
0.000893478
-0.00713468
0.0467392
-0.0434947
-0.0488847
0.0456394
0.222171
-0.011608
-0.213153
0.00137527
-0.0187666
-0.144799
0.16219
-0.183664
-0.0888659
0.0697758
0.202756
-0.000332936
-2.33404e-05
-0.00935375
0.00970994
0.00884891
-0.144227
-0.0923335
0.1051
0.000830872
-0.0135963
-0.00265002
0.00944645
0.217611
-0.224407
0.0250775
0.21366
-0.222218
-0.0165202
0.167851
0.113916
-0.16429
-0.117479
0.16243
-0.101843
0.174787
-0.235375
-0.277323
0.1587
0.226523
-0.107904
0.374003
0.19071
-0.367714
-0.197005
0.0159097
0.0110751
-0.217436
0.19045
0.0547177
-0.015911
-0.0449433
0.00616334
-0.155063
0.101473
0.0948948
-0.0413064
-0.00206776
0.00353169
0.000917505
-0.00238116
0.00783953
-0.000736026
-0.00811476
0.00101147
-0.00627969
-0.000869349
0.000926442
0.00622264
-0.0249255
0.0638697
-0.0695371
0.0305927
-0.00246038
0.000937497
-0.00149648
0.00302001
-0.213314
-0.0449148
0.165141
0.0930898
-0.000955347
0.000391528
0.00848432
0.0160242
-0.22522
0.226276
0.0719618
-0.0550512
-0.103906
0.0870093
-0.00670812
-0.00926589
0.0101441
0.00582928
-0.122734
0.166941
0.105673
0.0469488
-0.0272777
0.0060214
-0.0256925
-0.00959585
0.00565625
-0.00501204
0.00894997
-0.229558
-0.0979479
0.0501816
-0.204864
0.195061
0.0404097
-0.0306094
-0.0063831
-0.0066679
0.0078803
0.0051708
-0.176876
-0.178127
0.20002
-0.2277
0.151247
-0.134678
0.21113
-0.148511
0.123359
-0.0377807
0.0629327
-0.355088
0.338915
0.170352
-0.154178
0.114248
0.376307
-0.116558
-0.20905
-0.0245821
0.0253076
0.208322
0.0106895
-0.0018148
-0.0112624
0.00238698
0.0438971
-0.0119673
-0.0333855
-0.0165929
-0.0318775
-0.314137
0.362595
0.0713137
-0.0688933
0.0323191
0.235123
-0.205821
-0.206183
0.038996
-0.0753915
0.0773877
-0.0409919
0.0096345
-0.1141
0.11202
-0.00755318
0.0697312
0.115908
-0.118103
-0.0675335
-0.0143106
0.00803123
-0.00799732
0.0142778
0.0397333
-0.0367308
0.226577
-0.22958
-0.100926
0.164978
-0.156987
0.0929385
0.0243398
-0.0568097
-0.107834
0.140306
0.12723
-0.137529
-0.0117609
0.00912453
0.000209716
0.00242757
-0.0402207
0.0717226
-0.0406533
0.00915292
-0.143859
0.150386
-0.0252933
-0.0622029
0.131332
-0.126622
0.0574935
-0.00175224
0.00110392
0.000411013
0.000237731
-0.170468
-0.0879599
0.103431
0.154997
0.221505
-0.220977
0.0392042
-0.008138
-0.000572628
0.00777036
0.000940419
-0.238726
0.0297321
0.22536
-0.0163663
0.00358131
-0.00730428
-0.00265994
-0.174376
-0.095004
0.100306
0.169072
-0.00953822
-0.00334305
0.00606614
0.00681398
-0.00872069
0.000150147
-2.90624e-05
0.00859986
0.269309
-0.0497744
-0.216155
-0.00337918
0.0361492
-0.0492118
-0.142003
-0.177336
-0.0429124
0.06464
0.15561
0.00970075
0.0704313
-0.0524562
0.195968
0.0299488
-0.0452464
-0.18067
-0.0493683
-0.0881712
-0.0109712
-0.0561027
0.0181501
-0.175467
0.213418
-0.00660857
4.70729e-05
0.00654957
1.16578e-05
0.00176914
0.00696316
-0.00802741
-0.000705133
0.00110029
0.00119513
-0.0140558
0.151813
-0.0717987
-0.159168
0.176683
0.249146
-0.1236
0.121245
-0.0470138
0.224438
-0.197151
-0.106282
0.078992
-0.095649
0.161996
0.0845947
-0.150944
-0.167397
0.0526161
0.123631
0.0728463
-0.0649109
-0.048156
0.00648962
0.181144
-0.0112882
-0.176341
-0.072033
-0.175779
0.0641496
-0.196018
-0.0380199
0.0460027
0.188034
-0.0796653
0.185256
-0.330371
0.224778
0.025781
-0.175444
-0.0254931
0.175156
-0.000668835
0.00107823
-0.0103001
0.00792894
-0.00592791
-0.00656105
0.00455771
-0.0748173
0.0133302
0.131219
-0.000254756
0.00684935
0.000300499
-0.00689508
-0.0093319
-0.216416
0.0100554
0.215693
0.0043942
-0.00891402
0.0189936
-0.0144723
-0.0801939
0.0885916
-0.0965687
-0.115666
-0.449209
0.3762
0.188676
-0.00964871
0.00459621
-0.00454435
0.00811652
0.000175825
-0.000452546
0.00955161
-0.0227393
-0.0175589
0.0307461
-0.0400509
-0.0419388
0.0622308
0.0197758
0.00769349
0.0205986
-0.00725186
-0.02104
0.0167752
0.190187
-0.1789
-0.0280679
0.1976
-0.0218803
-0.00462859
-0.171093
-0.127304
0.122573
0.0445979
-0.0398649
0.247969
0.0459777
-0.104263
-0.189685
-0.0814828
0.207832
-0.182454
9.08823e-05
0.00640133
-0.00653132
3.84532e-05
0.0209623
0.111685
0.0619307
-0.0955835
-0.152523
0.186176
-0.069809
0.0933846
0.00945539
-0.00967451
-0.000449481
0.102822
-0.106611
-0.164005
0.167791
-0.109573
-0.131155
0.147448
0.0932814
0.0762339
0.214666
-0.098961
-0.19194
0.196178
-0.00423502
-0.0097855
-0.182158
0.298774
-0.151629
0.0772913
0.167906
-0.0290274
-0.168106
0.0292278
-0.106146
0.0432899
-0.0178738
0.0807298
0.000561058
-0.00150705
0.00851905
-0.00757312
0.00180938
-0.229809
0.239436
-0.0114379
0.0637411
0.0022556
-0.0543163
-0.0116797
0.132454
-0.0528519
-0.247797
0.168198
0.133468
-0.140521
-0.0759875
0.0830495
-0.0310261
0.218313
0.0773464
-0.26464
0.0453744
-0.0607644
0.0486265
-0.0332365
-0.0323228
0.0253413
0.217035
-0.210055
0.0111411
0.159109
-0.152098
-0.153245
0.0908706
0.133146
-0.0707716
-0.0144775
0.0217282
-0.0129808
0.0057304
0.00301752
0.0116917
-0.00963231
-0.00507658
0.0214669
0.220916
-0.223645
-0.0187387
0.103924
0.0216982
-0.045497
-0.0801233
0.00456253
-0.0124175
-0.00286101
0.010715
-0.124481
0.11951
0.231526
-0.0104486
-0.207041
-0.0140355
-0.0143082
0.248304
-0.232189
-0.114519
0.115524
-0.049202
0.0481976
-0.00849825
-0.00165415
0.00940531
0.000747005
-0.12159
0.192923
0.11257
-0.183902
0.177564
0.0841249
-0.158867
-0.109002
-0.00662452
0.121921
-0.0062944
0.0167135
0.000645587
-0.0149999
-0.161194
-0.170045
0.153113
0.0121188
-0.000348261
-0.0073766
0.194478
-0.373875
0.18832
-0.00892112
-0.0182829
0.00162303
0.0140233
0.00263615
0.18548
0.0188096
-0.186574
-0.0177159
0.0315938
0.1996
-0.0282551
-0.202942
-0.189929
0.0130741
0.181783
-0.00492831
-0.115116
0.0984363
-0.0775815
0.0942597
-0.0259465
0.101279
-0.0100069
-0.0653139
-0.0424615
0.0555561
-0.0390173
0.090266
0.0287446
-0.0800147
-0.0828489
-0.15228
0.0741048
0.161021
-0.0117728
0.0363992
-0.215491
0.190864
0.225981
-0.221747
0.0117935
-0.105684
0.0672312
-0.00495033
0.00569729
0.00837804
-0.00807987
-0.00122798
0.00611982
0.00318774
0.170074
-0.108836
-0.00341231
0.00532749
0.00659659
-0.00851145
-0.226622
0.0215856
0.0394661
0.165567
-0.20488
0.240335
-0.0381038
-0.201015
0.0613884
-0.0870793
0.226707
-0.0192788
-0.187728
0.0249208
0.182085
0.108696
-0.13523
-0.160999
0.187531
0.00054424
-2.53591e-05
-0.00734055
0.00682127
-0.000812518
0.00730391
-0.0099039
0.001999
-0.00597992
-0.000509655
0.00449046
0.153108
-0.0992053
-0.149553
0.241974
-0.0337454
-0.222538
-0.122838
-0.195777
0.139092
0.179521
-0.00033416
0.00884253
-0.00794821
-0.00604925
-0.180837
-0.0205721
0.207451
0.0113888
-0.00613209
-0.0136916
0.00458791
-0.0123684
0.0123431
-0.057031
0.0178533
0.0474065
-0.00822826
-0.044606
-0.117122
0.0528676
0.108862
0.180072
-0.0140802
-0.0467171
-0.11928
-0.0926719
0.193725
0.0649514
-0.166004
0.22214
-0.0429137
-0.215955
-0.0104462
-0.000242488
0.0103559
0.182376
-0.176634
-0.0175154
-0.215616
0.118823
-0.0247977
-0.00414809
-0.000720192
0.00240821
-0.0053371
0.00130717
0.0109838
-0.00695397
0.200557
-0.0432046
-0.163408
0.0473178
-0.200641
-0.000357366
0.00792095
-0.00104859
-0.00651725
-0.0269678
-0.0124851
0.0200776
0.0193748
0.0406353
-0.0282028
-0.268982
0.256552
-0.039004
0.0349262
-0.00698402
0.000460565
8.23687e-05
0.00644127
0.208812
-0.0365403
-0.204596
-0.0874031
0.207642
0.0313858
0.0351956
-0.0156069
-0.0509743
-0.000238244
0.00728745
-0.007785
-0.174039
0.0561125
-0.156441
0.0230217
0.0183455
0.115074
0.219239
0.0132566
-0.219928
-0.0125666
-0.109849
0.130566
-0.157212
0.136497
-0.00307441
-0.000745689
-0.00623184
-0.0339274
-0.127239
-0.436182
0.46961
-0.131465
0.149087
-0.0601656
0.0161972
0.011765
-0.000245634
-0.00742243
-0.00409667
-0.134557
-0.232456
0.0320715
-0.00902323
0.000914694
-0.0239639
-0.00624459
-0.298849
0.348315
-0.0432212
-0.00627143
-0.00623129
0.00469153
0.00780958
-0.00162958
0.00396178
0.00119821
-0.177887
0.021578
-0.0238304
0.180139
0.00268161
-0.0143487
0.0127682
0.00294394
0.0338214
0.112326
-0.000909152
-0.00854441
-0.0575018
-0.202823
0.0554583
-0.0617619
0.145166
0.0684083
0.0592467
-0.323363
-0.103602
-0.0147672
0.00440068
-0.00205102
0.109166
0.00980424
-0.0150479
0.0705237
0.231192
-0.216047
-0.0856697
0.0571519
-0.1275
0.181978
-0.111631
-0.00632195
-0.0023906
0.00204969
0.0066624
-0.240856
0.238953
0.012179
-0.0102733
0.111199
-0.0247901
-0.06471
0.00633591
-0.0104007
0.00315602
0.00914209
-0.00154687
0.00619092
3.63461e-05
-0.00965553
0.00342887
-0.0517965
-0.16842
0.0508728
0.169343
-0.161164
-0.144112
0.00126676
0.000754358
-0.0349337
0.0485999
-0.16981
0.156144
0.002669
-0.00980017
-0.00251821
-0.0853852
0.164531
0.0162385
0.220743
-0.211641
-0.0126141
-0.246577
0.268638
-0.0138325
-0.0108991
0.00644922
0.0258932
0.00175611
-0.0103136
-0.0173358
-0.0144116
0.0118276
-0.00639742
0.00898416
0.0104589
0.0198641
0.107591
-0.154096
-0.0715976
0.0032221
0.0179938
-0.0045055
-0.0003946
0.00183895
0.00357449
-0.005019
0.0376465
-0.107298
0.202578
-0.132925
0.120224
-0.187909
-0.158989
-0.0082439
0.000957702
0.00860086
-0.00880565
-0.000752676
0.0492676
-0.0591523
-0.164154
0.00582059
0.00102997
-0.000722217
-0.00612855
0.181174
-0.214248
0.0804446
-0.0473731
0.00657799
-0.0150113
0.00962935
0.0275224
-0.00796321
-0.176
-0.000662177
0.000300617
-0.00591742
-0.0292419
-0.192245
0.0400585
0.181427
0.141891
0.0304536
-0.138732
-0.0336126
0.00535081
0.00740757
-0.00432537
-0.00843296
-0.00643263
0.0127878
-0.000632576
-0.00572407
0.0675699
-0.186013
0.288167
-0.169728
0.010455
-0.0109288
0.00506168
-0.0796047
0.0557963
0.069182
0.00515913
-0.0183027
-0.00442286
-0.00224741
0.00504042
0.00537009
-0.0077395
-0.00429845
0.00349971
-0.00559741
0.00828904
-0.013782
0.00581433
-0.0150415
-0.135417
0.00701302
-0.00638613
0.00221307
-0.00284018
-0.195261
0.17273
0.0179491
-0.0177533
-0.144054
0.0100838
0.00106969
-0.0101719
-0.000981336
0.0116828
-0.0117661
-0.0182707
0.0183539
-0.0399964
-0.0536177
0.0314836
0.0621311
0.00980745
0.00303566
-0.0323054
0.0251242
-0.0183154
0.0254962
-0.0485946
-0.259719
-0.0236902
-0.0176387
0.00622433
-0.00221695
0.00387259
-0.00541173
0.208844
0.0225862
-0.0354622
0.000152479
-0.0070455
0.00323806
-0.00447355
0.0738804
0.111889
-0.0522943
-0.209154
0.0248604
-0.0217958
0.206091
0.109303
-0.127259
-0.0910454
-0.0395257
0.00676128
0.0345556
-0.00178822
0.00897018
-0.000822737
0.00413622
0.00658483
0.149403
-0.0922342
-0.099957
0.0427863
-0.00390705
0.00858887
-0.0132742
-0.00284302
0.263615
-0.247498
0.00283755
-0.00843694
0.00606063
-0.00168051
0.000639473
0.00240477
-0.00616194
-0.00306809
0.00682481
-0.177501
-0.148681
0.110563
0.0674448
-0.0378823
-0.144665
-0.00792331
0.138803
0.0137852
0.0153464
0.0170878
-0.0171584
-0.0152748
0.0213637
-0.0384982
-0.0229065
-0.000616874
0.0100388
-0.00652716
-0.00289468
0.183791
-0.0973954
-0.179069
-0.142245
-0.0243218
0.0687753
0.097793
0.0138183
-0.12959
-0.11778
0.23355
-0.00921129
0.00203091
-0.158109
-0.0159038
0.13908
0.00651032
0.000883344
-0.00801002
-0.00019316
-0.0213849
-0.00119705
-0.00525316
0.00553721
0.00091317
-0.155373
-0.217145
0.0690837
0.303432
-0.198449
0.179367
0.115972
-0.0968891
-0.0128367
0.0107309
-0.0117261
-0.00282147
0.00695678
-0.00349376
0.00791019
-0.0955311
0.0824549
0.429188
-0.431781
-0.113074
0.292721
-0.387369
0.175456
-0.0808104
-0.000791308
-0.0067423
0.00126307
0.00627075
-0.0660081
-0.0993724
0.114873
0.0505069
-0.000692461
-0.011801
-0.0484213
0.0398107
0.00980533
0.000265493
-0.0112674
-0.00276024
0.00323365
0.0197782
-0.020252
0.00744583
-0.000311291
-0.00794742
-0.000895956
-0.00738831
0.000390578
-0.000871072
0.00444141
0.000270466
0.163666
0.0764002
-0.115471
0.190123
0.149307
-0.223959
0.216587
-0.394829
0.227095
-0.0488536
-0.0895757
0.0562747
-0.016361
0.012335
0.026529
0.12997
-0.264191
0.16385
-0.0296276
-0.0235201
0.0135385
0.18763
0.00118412
-0.174997
0.00389492
-0.00200151
-0.00997379
-0.12475
0.0476835
-0.0457997
0.122867
0.00306522
-0.00391278
0.0108873
-0.139221
0.103228
-0.138385
-0.000461945
-0.0398355
0.350155
0.117649
0.102252
-0.152341
0.00766582
-0.00347678
-0.00239121
0.00396224
0.00190651
-0.0242427
-0.0900294
0.105282
0.00899045
-0.214494
0.00124982
-0.00815073
0.00727124
-0.0255498
-0.0212471
-0.00245659
-0.0127376
0.181602
-0.11951
-0.00932835
0.00259489
0.00207857
0.00465196
0.0920555
-0.0820174
0.0574073
-0.0162081
-0.162575
0.00897381
0.14873
-0.275899
0.164867
-0.0376976
0.299084
0.0818965
-0.0882634
0.115067
-0.122061
0.0853899
-0.117883
0.138227
0.110223
0.00879647
0.00996565
0.220243
0.0570199
-0.0589011
-0.218363
-0.00375739
-0.0150469
0.03318
0.150273
-0.121523
-0.0431906
0.143516
0.00295911
0.00503416
0.00589881
0.00160832
-0.00356618
0.0118038
-0.00808474
-0.000410055
-0.00330896
0.00387336
0.211829
-0.199466
-0.34394
-0.240935
0.0569623
0.000945239
-0.175262
0.0143571
-0.0128477
0.0208589
0.022906
-0.0270634
-0.0166987
0.00921601
0.00589803
-0.00465923
-0.0039432
0.0100096
-0.00888974
0.0212024
0.0760231
-0.103143
0.00591302
-0.0456789
0.0914933
0.0444521
-0.100159
-0.0529982
0.0851073
0.0680504
0.00497651
-0.00561554
-0.000429019
-0.0098152
-0.00560669
0.0069777
-0.0073007
-0.0639192
0.570588
-0.140813
0.117157
-0.0254753
-0.0629374
-0.00770323
0.00141882
0.0127956
0.107118
0.120023
-0.0656232
-0.161514
-0.055053
-0.0226269
0.052752
0.0115459
-0.00716205
-0.0187905
0.159537
0.0597582
-0.145192
-0.132631
-0.0427583
0.0578189
0.11757
-0.0376213
0.16428
0.0335909
-0.160266
-0.00243395
0.00542303
0.0123245
-0.0153136
0.150677
-0.126156
0.121804
-0.14633
-0.147893
-0.0257647
0.0725714
0.101086
0.0160584
-0.010696
0.00911133
-0.010007
0.00356289
-0.228117
0.187295
-0.00872907
0.0164131
0.00913449
-0.016819
-0.0156476
-0.00790457
0.00578707
-0.0132112
0.0188973
-0.0158485
0.0216275
-0.0914356
-0.128717
0.301588
-0.263693
-0.0401343
0.00223588
-0.00578305
0.00145831
0.00555006
-0.00122515
-0.127154
0.152982
-0.181206
-0.153055
0.163397
-0.109002
0.0986545
-0.289415
-0.0598118
0.279393
0.0698303
-0.0775312
0.107887
-0.0545981
0.0124097
-0.0142
0.22777
0.00334671
0.00865793
0.00223627
0.000296623
0.0102509
0.0734199
-0.041711
-0.00259494
0.00632952
-0.00616836
-0.00292453
-0.00535966
0.0094826
-0.0304657
0.018357
-0.0131439
0.00352374
-0.225881
-0.103101
0.151479
0.00403594
-0.0201654
-0.00454645
0.0206744
-0.194231
-0.0479734
0.000849424
0.0102272
-0.00506756
0.00811498
0.251452
-0.290599
-0.00319504
0.0012339
-0.00676802
0.101966
-0.0354859
-0.132488
-0.0557179
0.271219
-0.000587686
0.00863139
0.0416846
0.026464
-0.0100638
-0.154004
0.00616991
-0.0117307
-0.131939
-0.204215
0.0487534
0.147001
-0.0636271
-0.132134
0.0240726
0.0115109
0.000119409
-0.000135733
-0.00705801
0.00707468
-0.0531284
-0.0292966
0.0501581
0.0322778
-0.197373
0.0177842
0.014855
0.164734
-0.0377756
0.1171
-0.146856
0.177041
-0.198112
0.00210856
-0.42998
0.100407
-0.102208
-0.00722674
-0.056801
-0.11458
-0.0909734
0.027291
0.178266
-0.047353
0.117533
-0.114786
0.0216536
-0.0217747
0.0230288
0.00810025
-0.00540435
0.00566359
0.00506863
0.00210392
0.128692
-0.119663
0.275305
-0.307228
-0.134778
0.166696
-0.00897306
0.0593947
-0.222417
0.262345
-0.0205012
-0.196596
0.20302
0.014077
0.00360275
0.00232051
0.00044701
-0.00636029
0.0328683
-0.0110767
-0.017749
-0.0168056
0.00517298
-0.0120578
-0.189611
0.0354433
0.196104
-0.0419391
0.197295
-0.0667563
0.0505508
-0.181091
-0.102314
0.0492215
0.0963814
-0.119325
-0.068698
0.017175
-0.160446
0.0180208
0.125251
0.0607461
0.0501547
-0.0409656
-0.0699327
-0.00647351
0.0065287
0.00908718
0.0199501
0.274487
0.0247879
0.010257
-0.0203332
-0.0147122
-0.00787204
0.00712094
-0.00563842
-0.0124982
-0.00202287
0.0108142
0.00423249
-0.003658
-0.00751266
0.0247643
-0.000610647
-0.016632
-0.0856008
-0.290028
0.0862122
0.0237967
-0.0428501
0.0342455
-0.0151971
0.252222
-0.10601
0.0845148
0.12346
0.0929591
0.120583
-0.125037
-0.0884995
0.000337441
-0.01039
-0.00101024
0.0110636
0.00690851
-0.0080644
0.00967414
-0.0101609
0.00625499
0.0104734
-0.00864911
0.00792548
-0.00974924
-0.0155933
-0.00387709
0.00512249
0.0693601
0.162533
-0.0708756
-0.226656
0.0107336
-0.0153147
0.231236
-0.242227
0.0233088
0.00927744
-0.0234767
-0.0206521
0.0264901
-0.00753664
0.0103267
-8.72523e-05
-0.000227748
-0.00878485
0.00910027
-0.0186283
0.225863
-0.510143
0.172842
-0.0926816
0.0257058
0.0187104
0.0430366
0.0157686
-0.0120658
0.0334226
-0.0286488
0.0350369
-0.112661
-0.159639
0.0470727
0.225225
0.000165657
-0.00600275
0.000499822
0.152278
0.100305
-0.193189
-0.0974408
0.0740202
0.00302409
0.00437223
-0.428707
0.00208868
-0.0835317
0.120476
-0.0125475
-0.0892451
-0.0186838
0.0283681
0.0926362
-0.0060933
-0.00569775
-0.0267164
0.222474
-0.0470299
0.00805334
0.00384444
-9.33474e-05
0.00481196
-0.0111646
0.0257075
0.018656
-0.0279514
0.00132254
-0.165989
0.0649084
0.0997393
0.198206
0.0303498
-0.179779
-0.0487738
-0.223529
0.213835
-0.00292491
0.0126225
0.01136
-0.225603
-0.0516532
-0.188062
0.107775
0.0116142
-0.0322445
0.0413953
-0.0207516
-0.0158656
-0.00772507
-0.00318156
-0.188299
0.170949
0.0556527
-0.0454272
-0.01046
-0.0472567
-0.190858
-0.022226
0.183841
0.182954
-0.0448013
0.0577953
-0.19219
-0.0552175
0.284125
-0.0280243
-0.093671
-0.174317
0.114774
-0.149012
0.152072
0.138504
-0.141566
-0.0226911
0.073474
0.167525
0.00386368
-0.00719683
-0.00812048
0.0114542
-0.180018
-0.0882523
0.2478
0.0204703
-0.00747436
-0.00184608
0.0138046
-0.00448328
0.0715193
-0.160208
-0.058492
0.147182
-0.159263
0.111998
0.237389
0.00920344
-0.00935808
-0.150762
-0.00389297
-0.204233
0.0377403
0.170387
0.0113288
0.000643015
-0.0252677
-0.00380714
0.018379
0.068294
-0.0513857
-0.0700281
-0.190904
-0.0827357
0.0477546
0.134817
-0.0681111
0.00143446
-0.000384091
0.00484831
0.00622651
-0.00255411
-0.355045
0.00550327
0.0075447
-0.00915398
-0.0130151
-0.238547
0.0107067
-0.339649
0.31108
-0.0570336
0.177994
-0.011894
0.00663041
-0.216482
0.112983
0.023792
-0.191009
-0.0388022
0.206023
0.0262421
0.0771355
0.00188911
0.00944911
-0.00827324
-0.0275798
0.00182733
0.028986
-0.00867849
-0.00102328
0.0513382
-0.0300153
0.00739816
-0.307985
0.343386
-0.0428004
0.0110679
-0.196326
0.0266101
-0.0211427
0.0342014
0.0643821
0.001715
-0.0988202
0.181283
0.0668454
0.0250243
0.283884
-0.277777
-0.0311333
0.296319
-0.280809
-0.001641
-0.00640985
-0.149116
0.134391
-0.169242
0.19539
0.0257615
-0.0519069
-0.00156479
0.0295015
0.0358042
-0.0325994
0.242941
0.00469138
-0.215033
0.0636861
0.16521
-0.00964634
-0.000114175
0.00973165
0.0332194
-0.173054
-0.334334
0.0214731
-0.0745127
-0.060908
0.024886
0.231278
-0.0140654
0.0024993
-0.0265184
0.111694
-0.112742
0.0275678
-0.0687921
0.0375363
-0.148863
0.0933693
-0.0710002
0.00699648
-0.0453944
0.109405
-0.0558353
0.0577529
-0.000857899
0.195223
0.0185463
-0.192871
-0.0067617
0.00383967
-0.0234848
0.0558932
0.0658797
0.0407172
0.216175
-0.0398577
0.0020581
-0.0115932
-0.000617725
0.00360506
-0.0683946
0.171902
0.0915966
-0.0666291
0.0896249
-0.114574
0.100416
-0.0904681
-0.00567961
0.00169825
0.00569641
0.1165
-0.0367422
0.089251
-0.169006
-0.0691671
0.103649
0.0333533
-0.0678362
0.157456
-0.197366
0.210518
-0.15617
0.112938
-0.220581
0.0543206
-0.0734666
-0.0115672
0.00744901
0.00713589
-0.0199911
-0.174164
-0.0371261
0.140902
0.0703867
0.167477
-0.149555
-0.0815235
0.177962
-0.0845339
0.0791121
-0.172541
0.199059
-0.205436
0.0225106
-0.0161344
0.194641
-0.11907
0.15699
-0.232561
0.212922
-0.216557
0.0184026
-0.0147669
0.237098
-0.193921
-0.0193845
0.216758
0.0253932
-0.166958
-0.0165362
0.254017
-0.00777533
-0.0103223
0.0124552
-0.0991686
-0.185583
0.173923
0.110825
-0.0318249
-0.0668218
-0.127162
0.178038
-0.00513445
-0.179383
-0.288532
0.0193406
-0.0387952
0.187593
-0.0397051
-0.144016
-0.0669963
0.0992842
-0.0741929
0.0729662
0.211734
-0.0644572
-0.181454
-0.0182184
0.0126171
0.237663
-0.232063
0.161352
-0.0648528
-0.00220776
-0.0131134
-0.198914
0.214233
-0.0378397
0.206408
-0.201168
0.0117703
0.238599
-0.016776
0.200231
0.011767
0.0312706
-0.0393484
-0.170153
0.165995
-0.0678731
-0.140419
0.0552192
0.142351
-0.0653413
0.103966
-0.107798
-0.00253678
-0.0153953
-0.00871823
0.0366473
0.0281803
-0.0391207
5.39544e-05
-0.00320563
-0.00438492
0.192948
-0.018683
0.00881529
-0.00338497
0.0238448
-0.02777
0.200191
-0.196268
-0.281809
0.157616
0.197158
0.218639
-0.0269593
0.0166378
-0.208318
0.23296
0.0407937
-0.051616
-0.0542026
0.221017
-0.0181943
0.0181133
-0.220939
-0.0465945
0.437164
-0.047187
0.207443
0.0198913
-0.0144126
0.0182321
0.0124807
0.0816162
-0.016658
-0.0290798
0.0239651
0.0310542
-0.0222165
-0.199104
0.190261
0.176106
0.0797588
-0.0187679
0.238752
-0.20472
0.0331338
-0.0671672
0.207057
-0.139337
0.194603
-0.241337
0.108376
-0.0616447
0.183753
0.133778
-0.0787797
0.147599
-0.00572854
0.0427222
-0.184595
0.180783
-0.0828766
0.0800541
0.107839
-0.0580637
0.0538685
0.186114
0.0739489
-0.0530085
0.240124
-0.0279666
0.0216749
-0.233836
0.142187
-0.106
0.101484
-0.137672
0.216296
-0.233047
-0.0665367
0.0832849
0.171384
-0.305397
-0.0256256
0.157812
-0.0683092
0.0948558
-0.184363
0.23809
-0.00108305
0.00311773
0.189407
-0.193298
0.022435
-0.0150986
0.228158
-0.228802
0.0157392
0.245102
-0.285131
0.0251247
0.0149043
-0.0831396
0.255908
-0.174974
-0.0176725
0.204788
0.182124
-0.165143
0.126635
-0.143616
0.155186
-0.0971378
0.112022
0.0656953
-0.0692382
0.198145
0.0118889
0.186888
-0.181649
-0.0171279
-0.0319725
0.17472
-0.160411
0.0176619
0.156377
-0.0800206
-0.123213
0.0468559
0.115425
0.040591
-0.00841539
0.177066
-0.0778485
0.0959714
-0.0787618
0.0906269
0.083871
0.22124
-0.12433
0.14283
-0.0998503
0.192551
-0.0534184
0.0771587
0.175926
0.0644414
-0.0542556
0.080819
-0.0501629
0.00722245
-0.0112936
0.235528
-0.231456
0.22522
-0.00848203
0.00678639
-0.223528
0.207481
0.0318371
0.00578499
0.18837
-0.106689
0.112957
0.237655
-0.174604
-0.0221884
0.0241421
-0.212324
0.210372
0.221484
-0.218858
0.0221785
-0.02481
0.0208761
0.0343471
0.169933
-0.283948
0.130983
0.13268
-0.108477
0.229113
-0.0149312
0.0167256
0.17724
0.122595
-0.111466
-0.173818
-0.0803076
0.0949594
-0.0675495
0.0689946
0.161086
-0.151017
-0.204258
0.166024
0.189248
0.205881
-0.19516
0.00116686
0.181482
-0.178012
0.208627
-0.196149
0.0713924
0.011075
0.229368
-0.260194
0.0197471
0.236478
-0.0446239
0.0296273
-0.0666578
-0.157943
0.0561799
0.132535
-0.283453
0.187316
-0.0130343
0.203917
0.0132127
-0.204097
0.115011
-0.148511
-0.0318553
0.0575035
0.171254
-0.174989
0.0608474
0.177827
-0.0316365
0.217012
-0.220144
0.0347671
-0.00537594
0.243877
-0.157345
-0.0907688
0.00808696
-0.238882
-0.00335513
0.23415
0.0861082
-0.109791
-0.148109
0.171793
-0.0433369
0.137561
0.20736
-0.00987051
0.1093
0.00995818
0.21543
-0.291761
-0.146616
0.237454
-0.149313
-0.194446
0.106302
0.173464
0.271952
-0.225389
-0.0190323
-0.0275307
0.0171842
-0.000281791
-0.0107748
0.00104866
0.177922
-0.25275
0.0946805
-0.0487791
0.139853
-0.0844678
0.216567
0.169856
0.115919
-0.166554
-0.119224
-0.126292
0.130129
-0.201207
-0.0363841
-0.102136
0.254315
-0.035859
0.0716773
-0.0959577
0.00225949
-0.00484404
0.00503007
-0.12323
0.141875
-0.124646
0.0805165
-0.0770247
-0.144034
0.135358
0.0947848
-0.189841
0.0916342
0.18111
-0.0829052
-0.11493
0.175231
0.035675
-0.181337
0.16334
-0.0691513
-0.0448822
0.212324
0.02015
0.023016
0.196932
0.147182
0.104156
-0.0300994
-0.0442624
0.0430896
-0.213821
0.214993
-0.177795
0.0456438
-0.0852653
0.105117
-0.129482
0.151576
0.185385
-0.158998
0.104097
0.0977219
-0.0428229
-0.103002
0.0743934
-0.137457
0.103992
-0.0435267
0.0180419
-0.0026998
0.0632937
-0.0537086
0.166339
-0.18678
0.195516
0.0585443
-0.0672828
0.0711849
0.104499
0.0185922
0.206121
-0.204495
-0.0202203
-0.0316455
0.230235
-0.241931
0.195545
-0.0645824
-0.129023
0.0320455
-0.00751744
0.00082222
0.00430436
-0.265615
-0.0262974
-0.164495
0.068571
0.159216
-0.191392
0.179315
0.114625
-0.102549
-0.0187081
-0.237379
0.240074
0.0160116
-0.116926
0.233641
0.145514
-0.197054
-0.077196
0.0975128
-0.136364
0.162588
0.156697
-0.0678721
-0.185965
0.222514
-0.00858891
-0.144311
0.16665
-0.0273981
0.0190224
-0.164438
-0.14867
0.183274
0.129835
0.0718831
-0.0334674
-0.0612221
0.022819
-0.0797359
0.0343761
-0.214506
0.259865
0.22505
0.13665
-0.216897
-0.144804
-0.190777
0.157273
0.171064
0.184594
-0.103188
0.0755843
-0.14444
0.110983
-0.0881841
-0.0513506
0.0246044
-0.247632
-0.0574418
0.130908
-0.201102
0.0152962
0.204785
-0.0189816
-0.146412
0.136085
0.167943
-0.287703
0.00947772
0.0898273
-0.0391559
-0.0251575
0.023426
0.238209
-0.23895
0.00406494
0.15051
0.0843757
-0.0518707
0.0277979
-0.151408
0.161116
-0.151811
-0.10145
0.0912931
-0.1273
0.0165556
0.222553
-0.0460542
-0.193055
0.133877
0.115286
-0.145067
-0.136306
-0.0927064
0.216677
0.0123338
-0.00715987
-0.00744543
0.0138275
0.221455
-0.0115475
0.183587
-0.0173864
0.253091
-0.248524
0.00720673
-0.229379
0.231152
0.00896121
0.177272
0.0224115
-0.0173072
-0.223711
-0.0150339
-0.22683
0.221856
0.00141929
0.00355402
0.289658
-0.310305
0.0482904
-0.027639
0.194312
0.0208493
-0.016103
-0.271606
0.287109
-0.0107479
-0.00475635
0.249952
-0.00432239
-0.0141039
0.267418
-0.0067451
-0.263434
0.00276373
-0.310686
0.379772
-0.05528
-0.013808
-0.291229
0.0311294
0.301346
-0.041245
0.232323
0.00595446
-0.238261
-1.78683e-05
-0.016359
0.0207978
0.200901
-0.0142561
-0.223686
0.225834
-0.00884293
0.00669722
0.0380789
0.156374
-0.0183475
-0.0576379
0.113649
-0.201988
0.192225
-0.126601
0.0172045
-0.0161581
0.0225494
0.146952
-0.0516012
0.0775233
-0.118377
0.170823
0.170485
-0.14466
0.199399
-0.00793812
0.246342
-0.207352
-0.0133633
0.00569163
0.182391
-0.197279
-0.0417161
0.0355476
0.193055
-0.0357845
0.240778
-0.192766
0.196547
0.00456938
-0.00834934
0.236809
-0.00482152
-0.0105328
0.194477
0.00625986
-0.0171511
-0.246455
0.208118
-0.0191669
0.167025
-0.0427867
-0.109842
0.179067
-0.235571
0.2063
-0.0891335
0.00406891
-0.0162472
-0.191766
0.203942
0.0233201
-0.0277001
0.109663
0.0910428
0.0200112
-0.124975
-0.182023
0.0545118
-0.0609747
0.188484
0.158783
-0.269312
0.0354319
-0.110035
-0.0135812
0.126287
-0.152386
-0.134332
0.160431
-0.124133
-0.0865828
0.0662749
-0.176463
0.183336
0.010158
-0.0170307
-0.193986
0.214859
-0.0168051
-0.17096
0.173104
-0.0256646
-0.17895
-0.0201045
-0.181471
0.183311
0.0148124
-0.016654
0.172684
-0.177013
0.0338518
-0.0295203
-0.294726
0.239311
0.0707139
-0.0153003
-0.196666
0.205014
0.00785888
-0.0162062
-0.268047
-0.0424504
0.324978
-0.0144832
0.252169
0.0733671
-0.309765
-0.0157723
0.255158
-0.242738
0.00894075
-0.0213618
0.273958
-0.265189
0.0169059
-0.0256731
0.0236517
-0.208663
0.00294432
-0.000307759
0.226728
0.125621
0.134036
-0.161936
0.14256
0.0962603
-0.0777058
0.156658
-0.136118
0.244964
-0.166999
0.00254853
-0.18992
0.0941864
0.158662
-0.161215
-0.184241
0.0195581
-0.0167888
-0.027304
0.00612272
-0.0167986
0.0293233
0.239356
-0.0165102
0.0180801
-0.0172717
0.277191
0.0252226
-0.028454
-0.173362
0.0157013
-0.0212878
0.0138241
-0.0161781
-0.0233046
-0.183766
0.0386297
-0.0318768
-0.231606
-0.0474044
-0.0157161
-0.0040907
-0.014006
-0.156947
-0.190937
0.139635
-0.230394
-0.0374309
0.0536958
-0.167106
-0.0228974
-0.160303
0.281331
-0.157899
0.0237498
0.106377
-0.184906
0.239875
-0.208297
0.125821
0.133676
-0.167604
0.00340606
0.00326056
-0.00169004
-0.0718877
0.0671788
-0.135711
-0.183907
9.09064e-05
0.103029
0.191134
0.16772
0.148278
-0.0131832
-0.288422
0.0425225
-0.214209
-0.0303052
0.0638292
-0.0556416
0.0550059
-0.0631948
-0.000544303
0.00421417
-0.19859
0.160736
-0.23182
0.058158
-0.000723812
-0.0175113
0.110974
0.0730148
-0.053391
0.29404
-0.0036687
-0.000516977
0.283839
0.00680016
-0.059982
-0.230656
0.00385476
0.00163736
0.156886
-0.236684
0.0383631
-0.175581
0.0130826
0.0513717
0.101428
0.138581
-0.145925
0.122629
-0.038647
-0.195207
-0.0505184
0.226877
-0.220622
-0.152873
0.158352
0.0170714
-0.206897
0.038281
0.0691771
-0.185272
0.00610604
0.239351
-0.115236
0.0157059
0.234048
-0.228079
0.105738
-0.0527954
0.0896151
-0.00576552
0.0017396
0.0608924
-0.0700969
0.125434
0.0287754
0.139407
-0.073024
-0.287282
-0.0451466
0.186015
-0.00534098
0.168791
-0.185668
0.0471325
-0.0721004
-0.0177496
0.193024
0.171946
-0.110445
-0.159094
0.097593
0.143707
-0.0211079
0.227551
-0.0810461
-0.117702
0.0408076
-0.189193
0.175543
0.142284
0.108749
-0.058806
0.181503
0.116728
0.0662109
0.167993