/*--------------------------------*- C++ -*----------------------------------*\
  =========                 |
  \\      /  F ield         | OpenFOAM: The Open Source CFD Toolbox
   \\    /   O peration     | Website:  https://openfoam.org
    \\  /    A nd           | Version:  10
     \\/     M anipulation  |
\*---------------------------------------------------------------------------*/
FoamFile
{
    format      ascii;
    class       volVectorField;
    location    "200";
    object      U;
}
// * * * * * * * * * * * * * * * * * * * * * * * * * * * * * * * * * * * * * //

dimensions      [0 1 -1 0 0 0 0];

internalField   nonuniform List<vector> 
23845
(
(0.601146 -0.092621 4.61948e-21)
(0.604922 0.135851 -1.59316e-21)
(0.483869 -0.129495 2.01501e-20)
(-0.142126 0.00880147 7.09692e-22)
(0.317383 0.0856484 1.19709e-21)
(0.463887 -0.0235727 1.17541e-21)
(0.871181 -0.140379 -8.70977e-21)
(-0.0775713 0.0907395 -2.63709e-22)
(0.584767 -0.0823159 -5.35716e-23)
(0.601152 0.0490033 -2.74333e-21)
(0.50734 -0.00933495 -1.42132e-20)
(0.471787 0.022379 -4.58939e-23)
(0.457839 -0.0569446 -2.15139e-21)
(0.540441 -0.0643032 -3.53765e-24)
(0.789268 0.110561 -1.46909e-20)
(0.555731 0.0135388 -9.54022e-22)
(0.477554 -0.0390527 2.06245e-21)
(0.501501 -0.00565894 1.81538e-21)
(0.496134 0.005953 -3.73692e-21)
(0.403767 -0.00490687 -1.64986e-20)
(0.668144 0.0979409 7.48931e-21)
(0.498183 -0.00686167 -2.9656e-20)
(0.720303 -0.109448 -1.7776e-21)
(0.567401 -0.0740838 -3.50441e-23)
(0.571945 0.0262029 -8.81118e-22)
(0.699546 0.118353 1.01912e-21)
(0.822344 0.1374 6.30372e-21)
(0.405032 -0.022992 -9.06741e-21)
(-0.0490638 -0.130941 6.48726e-21)
(0.423658 0.00440719 9.32274e-21)
(-0.164933 0.00892118 2.73695e-20)
(-0.0389137 0.123042 3.0171e-22)
(0.580878 -0.0989298 6.89933e-21)
(0.497853 -0.003564 -5.51334e-21)
(0.465726 0.0315769 1.87375e-22)
(0.398051 0.0129832 -8.36862e-21)
(-0.0511871 0.151648 -5.43416e-21)
(0.464379 0.0229689 7.61382e-23)
(0.487013 -0.0068723 -7.53718e-23)
(0.622041 0.121318 -1.9122e-23)
(0.505377 0.00414467 1.01778e-21)
(0.456547 -0.000770486 -1.63109e-20)
(0.474791 0.0142158 -9.22018e-21)
(0.471467 -0.0302447 1.51248e-20)
(0.671693 -0.0971003 3.35846e-21)
(0.44266 -0.0537734 -3.28078e-21)
(0.171224 -0.0700356 -1.02497e-21)
(0.516291 -0.0081448 -6.4333e-21)
(-0.0317601 0.0276339 1.16367e-21)
(-0.058929 -0.12462 2.77613e-21)
(-0.0646581 -0.0454039 5.37673e-22)
(0.418597 -0.148474 -2.40256e-21)
(-0.0286749 -0.040463 -2.48179e-21)
(0.459892 -0.0353668 -2.14031e-22)
(-0.0420527 0.133545 5.5218e-21)
(0.479524 -0.0433917 -2.77632e-21)
(0.440211 0.147438 7.97742e-21)
(-0.118267 -0.036257 1.65168e-20)
(0.659446 0.103289 -1.3489e-20)
(0.167266 0.113246 -9.56401e-21)
(-0.0265311 0.11947 2.36671e-21)
(0.475697 -0.0307687 -3.07717e-21)
(0.54511 0.00566843 -1.86704e-21)
(-0.0243009 -0.0981 2.82127e-21)
(0.585505 -0.0790446 9.22869e-22)
(0.446155 -0.052221 -1.66963e-20)
(0.868508 0.126885 6.69459e-21)
(0.789277 0.157511 7.27082e-22)
(0.698737 -0.108105 -1.47912e-21)
(0.499742 0.00411282 7.54158e-22)
(-0.0533622 0.112631 2.62761e-22)
(0.358788 -0.0927425 1.35121e-20)
(0.598209 0.0336713 8.86781e-22)
(0.833085 0.113499 8.38189e-21)
(0.608951 -0.0828956 -2.68026e-21)
(0.763252 0.116515 -2.42585e-23)
(0.479882 0.0136885 -3.47805e-23)
(0.474059 -0.00456858 3.17042e-22)
(-0.154087 -0.0165674 3.49325e-21)
(0.514858 -0.0169172 3.13976e-21)
(0.76973 0.129426 -2.03784e-21)
(0.80054 -0.163881 -2.43288e-20)
(0.530611 0.146228 -1.94798e-21)
(-0.0970978 -0.0544718 -7.6375e-22)
(0.402837 0.0716022 -4.98552e-21)
(0.468741 0.0402474 3.69394e-22)
(0.740666 0.162507 7.90501e-21)
(-0.0237966 -0.00352391 1.14957e-20)
(0.601213 -0.0882628 2.97057e-22)
(0.515124 -0.0191087 -4.55938e-21)
(-0.0587706 -0.0949546 -9.73119e-21)
(0.535563 -0.0047028 -1.40225e-21)
(-0.0404863 -0.11218 9.46895e-21)
(0.389445 -0.00954407 1.4784e-21)
(-0.116551 -0.0209381 2.45282e-21)
(-0.062885 -0.107972 -2.8868e-20)
(0.46365 0.00671281 4.9367e-21)
(0.520169 -0.01036 -4.39423e-22)
(0.631349 -0.0992813 1.85662e-23)
(0.225221 0.052374 -1.79356e-21)
(0.480061 0.00481114 6.72005e-21)
(0.876112 0.124719 2.42953e-21)
(0.548539 -0.0912004 4.56751e-21)
(-0.067704 -0.0856364 -1.21327e-20)
(-0.0475796 -0.0930359 -2.39874e-20)
(-0.107998 -0.0426942 4.96863e-21)
(0.469793 -0.0316331 -7.18729e-22)
(0.636719 -0.092192 3.87629e-22)
(0.884311 0.114704 -1.07525e-21)
(0.462363 -0.0344891 -7.37164e-21)
(0.511554 -0.00633146 -6.96106e-21)
(0.464804 0.0142524 1.29808e-22)
(0.52919 0.0955096 1.00334e-20)
(0.539425 -0.0246913 -2.02577e-21)
(0.395317 0.00882419 4.39559e-21)
(0.600195 -0.0761256 -1.27382e-21)
(0.572398 -0.0592238 -4.02183e-21)
(0.572168 0.0270567 -3.33094e-21)
(-0.0498961 -0.134888 4.78297e-21)
(0.0141405 0.0857749 -1.5564e-20)
(0.475505 0.00149153 1.38755e-22)
(-0.0473366 -0.110526 -1.44212e-21)
(0.525493 -0.0147616 7.4358e-22)
(0.126431 0.00416682 3.2728e-20)
(0.879813 0.122301 -2.28657e-21)
(0.667783 0.0957493 1.52486e-21)
(-0.0294399 0.118119 2.00401e-21)
(-0.0594665 -0.117133 -1.04754e-20)
(0.292031 -0.0546266 8.13805e-22)
(0.183301 -0.106561 4.46288e-21)
(0.242129 -0.0251649 1.36867e-20)
(0.544242 0.0404433 3.62404e-22)
(0.482072 -0.0195668 2.73118e-22)
(0.520808 -0.0518612 -1.38596e-23)
(0.491838 0.00231894 3.94721e-21)
(0.579369 -0.0848855 1.69348e-21)
(-0.0671128 0.0946022 2.61812e-20)
(0.47948 0.021005 7.37007e-23)
(0.8518 -0.135924 3.43794e-23)
(0.482895 -0.0100525 -3.86452e-24)
(-0.0559245 -0.141111 -1.27017e-20)
(0.449649 -0.00191547 1.01389e-20)
(0.485031 0.0629794 1.22243e-22)
(0.483578 -0.0258233 -3.24811e-21)
(0.507117 -0.00142565 -6.01291e-21)
(0.457193 -0.0334881 1.28697e-20)
(0.560619 -0.0474497 -1.06339e-22)
(0.576732 0.115372 2.75103e-20)
(0.0596454 0.0585664 -1.22302e-20)
(0.528797 -0.00751486 2.09996e-21)
(0.573158 0.0859547 -1.16122e-20)
(0.502557 -0.0198286 3.17643e-21)
(0.667326 -0.194356 7.22816e-21)
(0.456277 -0.0121587 -2.94877e-21)
(0.54374 -0.113183 -3.72272e-21)
(0.537525 0.00257689 -5.46393e-21)
(0.480228 -0.0948643 -1.40991e-21)
(0.426258 0.00657553 2.34155e-21)
(0.270534 -0.0276466 8.68626e-22)
(-0.0577837 -0.12587 3.06985e-21)
(0.532352 -0.00580662 1.93832e-21)
(0.787623 -0.137305 -1.21171e-21)
(-0.109097 0.028241 -8.76323e-22)
(0.586251 -0.0816934 2.44882e-22)
(0.505996 0.0150326 9.60685e-23)
(0.528336 -0.00604355 2.3878e-21)
(0.508388 -0.0390039 8.79204e-23)
(-0.0522289 0.13856 -4.52118e-21)
(0.395756 -0.0210551 -7.33729e-21)
(0.447123 -0.00530323 -2.04155e-20)
(0.563868 0.107182 -4.41164e-24)
(-0.0982201 0.00414529 5.58032e-21)
(0.56371 -0.0709454 2.12498e-21)
(0.0728762 0.0160532 -7.70986e-21)
(0.649734 0.113685 4.06195e-21)
(-0.141477 0.00904351 -4.02794e-21)
(0.538905 0.000433663 1.26287e-21)
(0.54554 0.00991463 4.0639e-21)
(0.647632 -0.0992724 2.62518e-23)
(0.438683 0.00649879 -6.60259e-22)
(0.290987 -0.0771282 1.5712e-21)
(0.221268 -0.0572846 -8.44114e-23)
(0.819844 0.122873 7.29931e-21)
(0.50884 -0.00479942 -4.2701e-21)
(0.51135 -0.00536644 -4.40684e-21)
(0.484228 -0.047395 7.33415e-22)
(0.466383 -0.035027 -6.46556e-21)
(-0.0844115 -0.0633852 2.60025e-21)
(-0.0532576 0.132097 1.60461e-21)
(0.452337 0.00142385 5.95406e-21)
(-0.0382767 0.107347 2.57474e-20)
(0.519053 -0.0558888 2.30751e-22)
(0.594963 0.114108 -2.55823e-22)
(0.545154 0.0965865 -4.91473e-22)
(0.537322 6.54944e-05 -2.42802e-21)
(0.526102 -0.0590502 2.26372e-22)
(-0.0620152 -0.0909474 -2.09905e-21)
(-0.0529137 0.116184 1.64793e-21)
(-0.0748439 -0.0668231 -7.6662e-21)
(0.517608 -0.00691884 -4.05153e-22)
(0.527169 -0.00448261 -1.98165e-21)
(0.489046 -0.0452149 -3.56758e-21)
(0.053559 0.0629443 -6.79399e-21)
(0.502865 0.0319352 9.45252e-22)
(-0.0807915 0.0784086 1.14766e-20)
(-0.107855 0.0455787 6.31012e-22)
(0.38825 0.0845475 -2.68912e-20)
(0.486785 -0.0233054 1.13887e-23)
(0.663642 -0.139558 -4.57279e-21)
(0.513396 -0.0109845 3.54407e-21)
(0.514701 -0.0148498 -2.12038e-21)
(-0.0533659 0.150052 8.7404e-21)
(0.507864 -0.00415412 2.71645e-22)
(0.412063 -0.0223071 2.58493e-21)
(-0.0451641 -0.0342124 1.81502e-21)
(-0.0461307 -0.127068 -4.20943e-21)
(0.457537 0.0250932 -3.13893e-21)
(0.480305 -0.0302801 -7.61044e-22)
(-0.0541394 0.132282 1.2526e-20)
(0.291112 -0.0372684 -1.09923e-22)
(0.514147 -0.00427026 2.49336e-21)
(0.801671 0.116119 -4.34446e-21)
(-0.0657288 0.0901274 -1.69413e-20)
(0.537552 0.00106948 -4.66478e-21)
(0.46692 -0.0292656 1.65446e-21)
(0.64226 -0.116172 1.50062e-20)
(-0.0603273 -0.119514 -5.80784e-21)
(0.509789 -0.0520412 -1.0235e-21)
(0.509927 0.0816072 -3.04526e-22)
(0.530313 -0.0139916 3.63615e-21)
(0.426362 -0.00781838 6.93678e-22)
(-0.0379496 0.00602792 -6.63318e-21)
(0.457331 0.0139108 -1.68685e-22)
(0.750398 0.128457 5.85098e-22)
(0.362324 0.0783865 1.66223e-21)
(-0.0447388 -0.12801 -9.19442e-21)
(0.583852 -0.0745703 1.18098e-21)
(-0.171971 0.0016873 8.09777e-21)
(0.604834 0.0741337 -4.28711e-22)
(-0.0554886 0.00425052 2.1693e-20)
(-0.0301016 0.0475645 5.89371e-21)
(0.54449 -0.0343466 4.09402e-21)
(-0.119261 -0.0424126 -1.20038e-20)
(0.370272 0.0696287 -3.07024e-21)
(-0.0506623 0.129179 2.46291e-21)
(0.54767 0.00727418 -3.36579e-22)
(0.482408 -0.0363111 1.22229e-21)
(0.683886 -0.0944556 -1.11984e-21)
(-0.12616 0.0261254 1.86915e-21)
(0.766318 -0.142893 3.62872e-21)
(0.435704 0.00825396 4.28966e-21)
(0.445723 0.0409813 1.97893e-22)
(-0.0642088 0.082696 -3.49912e-21)
(0.477812 -0.0593071 -3.83867e-22)
(0.839508 -0.141513 -5.4236e-21)
(-0.0589419 0.122336 1.7711e-21)
(0.0471772 0.0641862 4.27714e-20)
(-0.0742395 0.0908691 6.36493e-22)
(0.37522 -0.0138091 -5.27487e-21)
(0.542686 -0.0636617 -2.3541e-21)
(-0.0186077 0.0148496 -1.37225e-20)
(0.414918 0.00853542 1.27132e-21)
(-0.0349849 0.11573 -3.30586e-21)
(0.514619 -0.00553696 9.16802e-21)
(0.534462 0.00398887 -5.10292e-23)
(0.651199 0.127517 2.95078e-22)
(-0.153368 0.00507071 -2.8123e-21)
(0.166066 0.00129744 -1.24684e-21)
(-0.0719866 -0.0541984 4.66306e-21)
(-0.171017 0.00839364 -1.45544e-20)
(0.464068 0.00118296 5.2515e-22)
(-0.104175 0.0206878 -3.23603e-21)
(-0.0586406 -0.00557547 -3.84306e-22)
(0.574512 0.103536 6.66422e-22)
(0.503572 -0.00487042 -4.06257e-21)
(0.597148 0.110955 -8.78183e-23)
(-0.0736449 -0.0787697 5.60947e-21)
(0.495385 -0.0470715 6.44502e-22)
(-0.0565045 -0.0656879 2.82455e-21)
(0.745645 0.100076 9.49924e-21)
(-0.0861553 -0.0415374 1.84257e-20)
(0.507258 0.0785121 4.55389e-22)
(-0.0801364 -0.0324461 8.12035e-21)
(0.50673 -0.000363917 2.73925e-22)
(0.449324 0.028947 2.04657e-22)
(0.00412687 -0.0871177 -1.14229e-20)
(0.0650996 -0.000237204 -4.22747e-21)
(0.490835 -0.0426624 3.44563e-21)
(-0.105557 0.0602461 -3.49237e-22)
(0.653934 -0.13831 6.40507e-21)
(-0.141421 0.0237349 2.33756e-21)
(-0.0481566 0.0528665 -7.66521e-21)
(-0.0200234 -0.101355 2.22358e-20)
(-0.0705535 0.103856 -4.45338e-21)
(-0.123079 0.0413369 3.06187e-22)
(0.456968 0.0225704 6.3971e-23)
(0.0210046 0.0757255 1.55534e-20)
(0.480534 -0.0395761 -1.48602e-22)
(0.459992 0.0388839 -2.02678e-24)
(-0.0536452 -0.136925 -5.73967e-21)
(0.24927 -0.0273309 2.21724e-20)
(0.652141 -0.12004 9.8975e-21)
(-0.0402202 -0.124427 1.62939e-20)
(-0.191099 0.00403568 7.03702e-20)
(0.551138 0.0953279 4.99695e-22)
(-0.187833 0.00133797 -4.12468e-20)
(-0.0269061 -0.0916608 -1.08876e-20)
(-0.0612192 -0.0250887 -2.41212e-21)
(0.478299 0.00559579 3.77135e-23)
(-0.0646429 0.0994179 3.66405e-21)
(-0.0556916 0.0141408 -9.48563e-21)
(0.59975 -0.193371 1.40761e-20)
(0.481085 0.00898303 7.52894e-22)
(0.555266 0.104415 -6.51415e-23)
(0.192233 0.0835295 2.31187e-20)
(-0.0564219 -0.136765 1.17851e-20)
(0.00802956 -0.0820484 1.548e-21)
(0.48937 0.0235956 -1.36069e-20)
(-0.0581233 0.131249 4.67669e-21)
(0.500327 0.00579339 1.6439e-21)
(-0.0488654 0.085614 7.35795e-21)
(-0.053124 0.145362 -6.54172e-21)
(0.0748582 0.0419606 -1.96521e-20)
(0.402597 -0.0187723 5.434e-21)
(0.725421 -0.143759 -8.17377e-21)
(0.520469 0.0855958 1.6399e-22)
(-0.176906 0.000978496 -1.7594e-20)
(0.140402 -0.103536 4.74025e-21)
(0.0397006 -0.0604348 -5.8447e-22)
(0.512715 -0.00901832 -1.83444e-20)
(0.606837 -0.164288 3.15266e-20)
(0.5062 -0.000205108 3.04753e-21)
(-0.0632627 -0.0759466 7.38492e-21)
(0.415317 0.0161132 -1.15043e-21)
(0.0387461 -0.066338 -4.37095e-21)
(-0.136117 -0.00336458 -2.24868e-21)
(-0.0239408 0.030502 -1.16596e-20)
(0.50864 -0.0124966 8.29709e-21)
(0.445389 -0.0361512 3.54187e-21)
(-0.161902 -0.0012442 9.83265e-21)
(-0.0352524 -0.00763589 -1.43174e-21)
(0.0663104 0.0513329 -1.18887e-20)
(0.506214 -0.00678277 2.05814e-20)
(0.723208 0.106114 1.07518e-22)
(0.638329 -0.0671781 2.99091e-21)
(-0.0606482 0.0618309 -3.99187e-21)
(0.426503 0.0280663 1.25281e-21)
(-0.0674492 -0.094423 4.93882e-21)
(-0.166655 -0.00698145 8.37034e-21)
(0.559932 -0.107094 -2.77963e-21)
(-0.0637632 0.0309379 1.53289e-20)
(0.204417 0.00690167 -5.04713e-21)
(-0.0626548 0.116775 1.71148e-20)
(-0.072924 -0.0581147 -8.60061e-21)
(-0.0280302 0.0693057 1.45214e-20)
(0.598689 0.117852 -2.31415e-22)
(0.439527 -0.00698357 9.90686e-23)
(0.607763 0.0607901 -4.20918e-22)
(0.647706 0.119383 -4.65986e-21)
(-0.123554 -0.0389353 3.24187e-21)
(0.198839 -0.0203895 -9.94512e-21)
(0.68604 0.139131 9.35831e-23)
(0.551821 -0.0405385 -3.99883e-21)
(0.503478 0.000983482 -5.09706e-21)
(-0.0510833 0.13694 9.26265e-21)
(0.505318 -0.0418406 -1.47625e-24)
(0.0858044 -0.0343631 -2.71456e-21)
(0.388381 -0.0146798 9.41005e-22)
(-0.0516302 -0.137171 5.63283e-21)
(0.709384 0.127956 -9.02133e-22)
(0.454925 -0.00412527 2.71567e-21)
(-0.0560353 -0.109941 1.48827e-20)
(-0.00718218 0.0564615 -1.19216e-20)
(0.483104 0.0438495 9.83772e-26)
(0.41777 -0.000527361 -3.84525e-21)
(-0.0616491 0.110931 -2.8607e-21)
(0.178357 0.064089 -1.61989e-20)
(-0.0829107 -0.0132306 -3.78477e-21)
(0.441797 -0.0026469 8.78234e-21)
(-0.0512155 0.0266255 7.74564e-21)
(0.791036 -0.154543 -8.00566e-21)
(0.406466 0.00404123 -1.41366e-22)
(0.683416 -0.108134 8.35083e-21)
(0.654663 -0.0758095 -8.47834e-22)
(0.738303 0.117598 -2.20451e-23)
(0.468257 0.00678253 9.62267e-23)
(0.43886 -0.0133011 4.14784e-21)
(-0.152902 -0.010786 -5.82382e-21)
(0.522287 -0.00420403 -3.67458e-21)
(-0.129324 -0.0216701 -1.19605e-20)
(0.847354 -0.150742 -1.72932e-21)
(0.451371 -0.032624 -2.14973e-21)
(-0.0210865 -0.0789812 2.5436e-20)
(-0.0443276 -0.0809784 6.15424e-21)
(-0.0516703 0.0337506 6.99559e-21)
(-0.0542113 0.145625 5.79679e-21)
(0.527168 0.00485827 -7.22104e-21)
(0.638401 -0.08743 -1.18929e-21)
(0.50018 0.00351263 -2.37599e-21)
(0.406942 0.0115402 -1.10582e-21)
(0.0625001 0.0519662 -1.5265e-20)
(-0.149244 0.016842 3.52767e-20)
(-0.0921626 0.0693762 2.28406e-22)
(0.040653 -0.0276181 -8.32237e-21)
(0.33495 0.147797 8.73112e-21)
(0.787463 0.125637 7.53315e-21)
(0.493171 -0.0221914 -5.42553e-24)
(-0.0165984 0.0698569 1.70526e-20)
(-0.0482867 -0.103844 7.90522e-22)
(0.00646469 0.0853204 -1.60595e-20)
(0.721468 -0.127352 -7.22514e-21)
(0.764812 0.139962 6.9668e-22)
(0.854827 0.124568 6.33665e-21)
(0.081922 -0.0461856 9.82836e-21)
(0.514028 0.0955522 -3.3915e-21)
(0.300617 -0.115905 -1.13856e-20)
(-0.0455071 -0.0642276 1.34023e-20)
(0.50319 -0.00371275 -2.73886e-21)
(0.503478 0.0758856 -4.2788e-22)
(0.623827 0.062634 7.54098e-22)
(0.209197 0.0231432 5.02563e-21)
(0.39724 -0.0354435 -6.61507e-21)
(0.562946 -0.0747365 2.70572e-22)
(-0.169724 0.00749031 5.7239e-21)
(-0.0234493 0.101941 6.38405e-21)
(0.651622 0.120372 2.01229e-20)
(0.188899 -0.0226208 -4.61762e-21)
(-0.134836 0.0189034 1.21579e-20)
(0.127903 -0.016924 1.08789e-20)
(0.19282 -0.0297079 -2.14793e-20)
(0.510382 -0.0531277 3.67535e-22)
(0.506671 -0.016306 -7.81681e-22)
(0.0513015 -0.0570497 -2.12503e-20)
(0.5078 -0.0104744 -1.66368e-20)
(0.42344 -0.0415737 -1.35822e-20)
(0.56516 -0.0443556 3.33142e-21)
(0.478241 0.0373816 3.86228e-23)
(0.479984 -0.0497007 -6.16809e-21)
(-0.0378809 -0.120702 3.63699e-21)
(0.0858384 -0.0235595 4.39174e-21)
(0.709899 0.115792 -2.90504e-22)
(0.0973161 0.000901782 -1.14345e-20)
(-0.0519166 0.0981307 -1.80403e-20)
(0.262362 -0.0365049 -4.02787e-21)
(-0.145642 0.0201497 -6.61062e-21)
(0.00668522 -0.0789388 -5.77034e-21)
(0.389779 -0.0160924 -1.20798e-20)
(-0.101544 0.000269281 -1.52063e-20)
(0.491604 0.0702642 3.68133e-22)
(-0.0539053 0.0140621 -6.9461e-21)
(-0.159324 0.0132715 2.83665e-21)
(0.487654 -0.0140949 -1.52297e-21)
(0.0694011 0.0133584 -1.24288e-20)
(0.426902 0.0313149 2.79306e-21)
(0.756751 0.144953 -2.24155e-21)
(0.0553452 -0.0554017 -1.44175e-21)
(0.171418 0.113772 2.50211e-21)
(0.502206 0.0354741 1.39041e-21)
(-0.0799711 0.0922031 1.1406e-20)
(0.46563 -0.0379188 2.10008e-21)
(0.698468 -0.156521 -2.72856e-21)
(-0.182484 0.0093749 -4.74333e-20)
(-0.0625648 -0.104173 1.7551e-20)
(0.196082 -0.131516 -3.28233e-21)
(0.466648 0.057554 -7.91777e-22)
(0.47275 -0.0119921 3.61209e-22)
(0.52705 0.086528 -6.15336e-22)
(-0.0418222 -0.0139863 2.50102e-21)
(0.708281 0.092654 -2.67747e-22)
(0.520963 -0.0949559 -2.85988e-21)
(0.436471 0.0156291 2.03928e-21)
(0.491043 -0.0308773 -1.43321e-22)
(-0.175408 0.00360266 -2.98826e-21)
(-0.0144059 0.103124 7.59237e-21)
(-0.0142481 0.0892766 -1.98754e-20)
(0.390126 -0.0860762 1.55041e-21)
(0.510534 -0.025637 1.3607e-21)
(-0.0503127 0.1167 -4.75134e-21)
(0.428118 -0.0280465 6.08576e-21)
(0.521809 -0.0147311 1.3985e-21)
(0.00155698 0.012631 3.72178e-21)
(-0.0940655 -0.0287864 -1.43827e-20)
(-0.177686 -0.0047649 -7.03425e-21)
(0.501284 0.00997556 -8.89071e-21)
(0.520351 -0.00207949 -3.01467e-21)
(0.697741 0.135345 -6.76027e-21)
(0.456182 0.00549247 -9.46366e-22)
(0.479657 0.0520545 1.94222e-22)
(0.484992 0.131183 -2.44993e-21)
(0.0958086 0.0378902 -8.81455e-21)
(0.713256 0.135078 3.8512e-22)
(0.252544 0.0261997 1.54966e-20)
(-0.0624292 0.121554 5.93264e-21)
(-0.0627034 -0.00302717 -9.00442e-21)
(-0.0607612 0.0828438 -7.59455e-21)
(0.0741583 0.0202012 2.43814e-20)
(0.553896 -0.0385383 -8.27799e-21)
(0.26815 -0.0868376 -5.61616e-21)
(0.608975 -0.0869753 -3.85833e-22)
(0.436641 0.038205 -2.2972e-21)
(0.692635 -0.193655 9.82359e-21)
(-0.0546921 0.153397 -1.15608e-20)
(0.115588 0.0310586 1.74796e-21)
(0.0355144 -0.0127747 -5.88673e-21)
(-0.0966764 0.0605929 1.21045e-20)
(-0.134865 -0.0301682 1.21666e-20)
(0.511754 -0.00459093 9.2956e-21)
(0.485601 -0.0555724 2.30614e-21)
(0.388581 -0.0186216 5.68478e-23)
(0.104007 0.0367018 -2.06703e-20)
(-0.189827 0.00188517 9.65388e-21)
(0.113404 -0.0299232 -1.40002e-20)
(-0.0511039 -0.13913 2.26866e-20)
(-0.182992 -0.00337173 8.80262e-21)
(0.570958 0.106362 5.10394e-22)
(0.691229 0.0795438 -2.83757e-22)
(-0.12233 -0.0280768 3.00366e-21)
(0.481535 -0.0813341 -6.877e-21)
(0.470826 -0.0883014 3.61336e-21)
(0.433066 -0.0393872 -3.06554e-21)
(-0.0390322 -0.119686 1.78664e-20)
(0.453461 -0.0333774 -3.58571e-21)
(0.511251 -0.0118882 5.878e-21)
(0.00608123 -0.0728499 9.85985e-21)
(0.675532 0.0667731 -6.67419e-22)
(0.844646 -0.156228 3.60234e-21)
(0.824276 -0.146807 -4.14162e-21)
(-0.0106583 0.0965705 -2.24511e-20)
(0.675214 -0.11342 6.32141e-23)
(-0.0524422 0.147759 -3.11561e-21)
(-0.0488565 -0.128139 8.78839e-22)
(0.323006 -0.0550449 -3.79081e-21)
(0.393028 -0.0509884 6.95057e-21)
(0.777371 0.0979651 -8.26674e-21)
(0.50579 -0.0298013 1.04838e-21)
(0.488628 -0.0534508 -1.83194e-23)
(0.446348 -0.0324387 3.21515e-21)
(0.0412949 -0.0661566 1.63889e-20)
(0.157867 -0.0114288 -1.99441e-20)
(-0.150693 -0.0197612 -1.46407e-20)
(0.41918 0.0839805 4.51032e-21)
(0.466905 -0.037893 9.0207e-22)
(0.718734 0.0928266 7.77218e-21)
(0.692778 -0.103006 -1.12852e-21)
(0.504572 0.000496186 2.91254e-22)
(0.65952 -0.0941903 -3.44015e-21)
(0.49338 0.0100673 2.60308e-21)
(0.467257 0.0125408 -1.42287e-20)
(0.411885 -0.0240377 1.44888e-20)
(0.466986 -0.0347304 9.46378e-21)
(0.462411 -0.0179132 2.11593e-21)
(0.457493 0.0307127 -4.52933e-22)
(0.0914766 -0.0137948 -2.53597e-21)
(0.447482 0.00150876 -8.35769e-21)
(-0.0975604 0.0746248 -4.05342e-21)
(0.65428 0.165009 -6.30679e-21)
(0.433757 -0.00357305 8.02065e-21)
(0.12982 0.022411 -9.90955e-21)
(0.419057 0.0235506 7.78471e-24)
(0.441694 0.0371384 3.7724e-21)
(-0.12586 0.0100677 1.57658e-21)
(-0.172097 0.0149538 -2.12342e-21)
(0.31855 -0.157077 -3.55221e-21)
(0.384326 -0.0138694 2.41179e-21)
(0.438924 -0.0349271 5.76595e-21)
(-0.0406194 -0.0701292 1.14637e-23)
(-0.0404049 0.0984524 4.48772e-22)
(0.651754 0.0835094 -1.29209e-21)
(-0.0411243 0.128665 -1.96443e-20)
(0.477789 -0.0594155 -3.42231e-22)
(0.596966 -0.0383032 4.77799e-23)
(0.830677 -0.162047 1.65494e-21)
(0.488358 -0.0449221 3.33461e-22)
(0.526529 0.0889492 -1.54431e-21)
(0.525024 -0.0157786 6.091e-21)
(0.302488 -0.06767 -2.70886e-22)
(0.0595696 -0.0385656 -4.28796e-20)
(0.318956 0.0352056 5.96287e-21)
(-0.0833306 -0.0630602 6.9289e-21)
(0.17926 0.01828 3.34015e-21)
(0.571861 -0.0196535 1.03506e-21)
(0.472578 0.014593 -5.01808e-24)
(0.505487 -0.000152739 2.17033e-21)
(0.522362 0.116212 5.67235e-21)
(0.0228693 0.0667676 1.01003e-20)
(0.436948 -0.0109645 -1.34101e-20)
(0.579511 0.0139422 -3.275e-22)
(0.52729 -0.017275 -4.57913e-22)
(-0.0862839 -0.0435883 -9.56358e-21)
(0.537189 -0.0316692 6.06073e-21)
(0.773043 -0.1096 -3.88342e-21)
(0.567738 0.0931191 8.46472e-22)
(0.625594 -0.123532 -1.82314e-21)
(0.506819 -0.00389351 -6.34284e-21)
(-0.0672766 -0.104812 -3.39008e-21)
(0.445438 -0.00900661 1.68882e-20)
(0.62414 -0.0593969 -4.5772e-21)
(0.453866 -0.0345058 -1.74777e-21)
(0.499548 -0.00616901 -3.70294e-21)
(0.498518 0.0569031 1.19041e-22)
(0.390525 -0.130119 5.77567e-21)
(0.426684 -0.0257212 -6.54199e-21)
(0.239694 -0.00394966 -7.10942e-22)
(0.735574 0.127345 -5.89676e-21)
(0.013164 -0.00282703 -1.27663e-21)
(0.565972 0.0295547 -5.52924e-22)
(-0.0784159 0.0762033 -8.96253e-22)
(0.207366 0.00948344 -4.75466e-21)
(0.854235 -0.146239 -1.29791e-21)
(0.535884 0.00105174 8.19201e-21)
(0.0290252 -0.0387242 3.52559e-20)
(0.534723 0.0817702 -3.04953e-21)
(0.502697 -0.182089 -5.14664e-21)
(0.282041 0.035739 -1.16895e-21)
(0.0302542 0.0572569 2.71783e-20)
(0.612824 0.0929023 8.31019e-21)
(0.378427 0.0114421 -9.63715e-21)
(0.470082 0.0776989 4.69304e-21)
(0.422099 -0.0044721 1.82782e-20)
(0.438222 -0.0291203 -1.67705e-21)
(0.249705 -0.0352333 5.05065e-21)
(-0.0559487 -0.118042 -2.52069e-21)
(0.150295 -0.042889 9.60361e-21)
(0.531974 -0.0011285 -1.1075e-21)
(0.440081 0.110215 -7.06549e-21)
(0.511306 -0.00110873 5.54965e-21)
(0.505058 0.00568994 -7.59121e-22)
(0.491669 -0.0182941 -3.72642e-20)
(0.504827 0.0119666 -1.73332e-22)
(0.515603 -0.0119179 2.30246e-21)
(0.45704 -0.0564091 -1.09311e-21)
(0.44939 0.0112722 1.60811e-21)
(-0.0412979 0.0352036 1.36855e-20)
(0.415999 -0.0239437 -1.23352e-21)
(0.476115 0.0426504 -5.50006e-22)
(0.618899 -0.123765 2.03701e-20)
(0.579343 0.0951914 1.97807e-21)
(0.528007 -0.0192176 1.83374e-21)
(0.566033 -0.0147193 1.93339e-21)
(0.518003 0.00424144 -4.4589e-21)
(0.321108 -0.141915 -1.60213e-21)
(0.520201 -0.00507875 -6.25692e-21)
(0.382785 -0.0182075 4.65945e-21)
(0.480662 -0.0584302 -2.25044e-22)
(0.589314 -0.0773388 -5.95916e-21)
(0.543976 0.0250678 2.47265e-21)
(0.628489 -0.104777 -1.9421e-21)
(0.47877 -0.0585079 2.05399e-21)
(0.563217 0.0260125 -2.9048e-22)
(0.362943 -0.0715857 -1.26245e-21)
(0.382324 0.00131185 -2.93648e-21)
(0.442253 0.0330084 7.25083e-22)
(0.351837 -0.0013768 -2.54895e-21)
(-0.122217 -0.0309178 8.71029e-21)
(-0.0212456 -0.106239 -2.82162e-20)
(0.461434 -0.0823062 6.76688e-21)
(0.0986095 -0.0334999 -7.37411e-23)
(0.567886 0.022645 8.25328e-22)
(0.0380876 0.0634367 2.13695e-20)
(0.523727 0.0114879 -1.00987e-21)
(0.5231 -0.00667685 -9.06069e-22)
(0.51368 -0.023043 5.04173e-21)
(0.512181 -0.0162303 -4.12052e-21)
(0.478573 0.1035 2.866e-21)
(0.489505 0.00120433 -1.39129e-21)
(0.573849 -0.0250424 -5.69806e-21)
(0.50484 0.0129538 -1.35771e-21)
(0.368095 0.0590709 4.30328e-21)
(-0.16431 -0.00871272 2.32935e-20)
(0.525234 -0.0157646 -1.51023e-21)
(0.512888 -0.00950096 -6.15298e-22)
(0.508824 0.00135923 -7.97829e-21)
(0.518265 -0.00545999 3.46938e-22)
(0.502381 0.00269284 -2.61904e-22)
(0.508293 -8.88531e-05 9.43016e-21)
(0.424216 0.00694137 8.41067e-21)
(0.510406 -0.00232727 -4.22849e-21)
(0.385158 0.00571598 6.81374e-21)
(0.517226 -0.00426099 5.4123e-21)
(0.509541 -0.0201925 -1.01033e-20)
(0.520476 -0.00844935 -1.19143e-20)
(0.510293 -0.00558447 1.00228e-20)
(0.436193 -0.0431406 -8.56899e-21)
(0.509165 -0.00828056 -1.91441e-20)
(0.506688 -0.0219832 3.16953e-21)
(0.546454 0.0312253 -4.08296e-21)
(0.470119 -0.0475037 -4.23258e-21)
(0.503617 -0.0109918 3.28837e-20)
(0.510907 0.0223835 -8.46382e-21)
(0.56023 0.0229679 1.27642e-21)
(0.496031 -0.0152827 1.50212e-20)
(0.449163 0.00351453 -6.71574e-21)
(0.503328 0.00103614 6.5794e-21)
(0.493956 0.0013044 1.66492e-21)
(0.483103 0.000952509 2.0038e-21)
(0.462767 0.00362509 -1.04143e-20)
(0.437427 0.00530954 -6.87772e-21)
(0.508177 -0.0015116 -1.18767e-20)
(0.398031 -0.00149254 -7.70302e-21)
(0.509778 -0.00346484 -9.5662e-21)
(0.520814 -0.00675811 3.28646e-21)
(0.50904 -0.00645967 -1.24104e-21)
(0.515363 -0.00336828 -4.84383e-22)
(0.507061 -0.00885807 -9.80734e-21)
(0.493007 -0.00392476 2.66501e-21)
(0.490828 -0.00115515 9.66951e-21)
(0.500696 -0.0115604 -2.62579e-20)
(0.487706 -0.0177019 4.65316e-20)
(0.491951 -0.01431 -1.71813e-20)
(0.491564 0.00998503 -3.69758e-21)
(0.462765 -0.0443723 1.69027e-21)
(-0.131729 -0.0292661 -2.12472e-20)
(0.537733 -0.053301 1.12979e-21)
(0.447255 0.00578093 2.08949e-20)
(0.472564 -0.0409365 -7.61986e-21)
(0.482807 -0.0167241 -4.11657e-20)
(0.455758 -0.026801 -2.36322e-21)
(0.513267 -0.00428574 1.66711e-20)
(0.476238 -0.0193381 -8.34889e-21)
(0.499144 0.00463348 7.74806e-21)
(0.487537 0.00550256 1.36322e-21)
(0.512603 -0.00364132 2.05655e-20)
(0.466706 -0.0178141 9.98992e-21)
(0.457629 -0.0451747 -3.95554e-21)
(0.370012 -0.0145722 5.18127e-21)
(0.518642 -0.0069286 -2.63394e-21)
(0.509989 -0.00173377 -3.34065e-21)
(0.357711 -0.0256613 9.58296e-21)
(0.491383 -0.01974 2.11421e-21)
(0.502084 -0.00256013 -2.38643e-21)
(0.450502 -0.0200693 1.51612e-20)
(0.497381 -0.00668103 4.59919e-21)
(0.375218 -0.0172778 5.75647e-21)
(0.442395 -0.0483381 6.70283e-21)
(0.465047 0.01515 -4.89956e-23)
(0.503715 -0.0185027 1.55966e-20)
(0.273876 -0.00574742 -1.16082e-21)
(0.469142 -0.0232616 -4.69908e-21)
(0.473525 -0.0378064 1.04318e-21)
(0.419401 -0.0290272 -9.3248e-21)
(0.658945 -0.0992909 -6.91726e-22)
(0.438991 -0.0221061 1.00652e-20)
(0.525295 -0.00569453 6.0185e-21)
(-0.0358028 0.10089 -1.53228e-20)
(0.528182 -0.0224299 -3.93267e-21)
(0.452772 -0.0257611 1.38482e-21)
(0.374313 -0.00840654 4.09184e-21)
(0.431281 -0.0201831 -2.02232e-20)
(0.409368 -0.0361456 9.50206e-23)
(0.402795 -0.0138179 -3.34757e-21)
(0.642743 -0.156783 -2.4623e-20)
(0.431125 -0.0445677 3.06656e-21)
(0.665005 -0.08425 -8.86708e-22)
(0.546285 0.0278097 2.26457e-21)
(0.467686 -0.043026 1.6535e-21)
(0.0912558 0.034388 4.71432e-21)
(0.523247 -0.00825709 -7.75323e-21)
(0.519063 -0.00519878 -1.20846e-20)
(0.452248 0.00562313 -5.89059e-21)
(0.47213 0.00268093 -1.51106e-20)
(0.415435 -0.0121273 2.09337e-20)
(0.440684 -0.0412256 -4.92576e-21)
(0.508528 -0.00257903 2.70931e-20)
(0.51715 0.00331002 -3.29068e-21)
(0.506401 0.00935113 7.48344e-21)
(0.509299 -0.00432275 2.45688e-20)
(0.534201 -0.00205291 -2.6107e-21)
(0.504843 -0.00983599 7.68611e-22)
(0.534945 0.123956 -9.81858e-21)
(0.499314 -0.0132785 1.96175e-20)
(0.408224 -0.0191941 -4.89156e-21)
(0.443018 -0.000513305 -5.43744e-21)
(0.46594 -0.00101005 5.23228e-21)
(0.482077 0.0201244 1.02221e-20)
(-0.0879753 0.0189497 -1.55506e-20)
(0.513336 -0.00263146 1.23138e-20)
(0.412624 -0.0191364 2.18449e-21)
(0.447756 0.0705904 3.86616e-21)
(0.542311 0.00681438 -2.45417e-21)
(0.503848 -0.0214907 1.39928e-20)
(0.487627 -0.0137182 1.68793e-21)
(0.505079 -0.0084472 4.70796e-21)
(-0.0579398 0.072849 2.58689e-21)
(0.590378 0.105873 2.49141e-22)
(0.514526 -0.0034304 -1.01687e-20)
(0.421981 -0.0237052 -2.31157e-21)
(0.464344 -0.0557463 -1.21724e-21)
(0.479387 -0.0255459 1.92994e-20)
(0.429429 -0.0269492 1.00589e-20)
(0.41494 -0.0210707 2.13848e-20)
(0.477353 -0.0149359 4.75184e-20)
(0.453825 0.00641422 -1.30833e-21)
(0.488266 -0.00114218 -7.52021e-21)
(0.437063 0.000403147 -9.70607e-21)
(0.445108 -0.0212466 -1.18029e-20)
(0.441882 0.00650131 6.44507e-21)
(0.216465 0.0999266 5.08393e-21)
(0.514914 -0.00533299 6.63218e-22)
(0.404867 -0.00276105 1.47542e-20)
(0.502085 -0.0169991 2.67799e-22)
(0.489419 -0.0217836 -1.20905e-20)
(0.448639 0.00843407 3.91919e-21)
(0.417849 -0.0207373 -8.78931e-21)
(0.532715 0.000873862 5.94791e-22)
(0.53763 0.00983157 -2.24044e-21)
(0.523153 -0.00883541 -1.4921e-21)
(0.447049 -0.0411649 -1.03823e-20)
(0.416068 -0.0246886 4.24454e-21)
(0.45237 -0.0460357 1.17544e-21)
(0.430027 0.0028291 1.8986e-21)
(0.549287 -0.104689 -1.69209e-21)
(0.523443 -0.00782316 1.46615e-20)
(0.465382 -0.00742778 -3.49076e-21)
(0.497549 0.00152103 9.83053e-21)
(0.405817 -0.023506 -2.09505e-20)
(0.50884 -0.00387251 5.67819e-21)
(-0.0328348 0.113331 7.75064e-21)
(0.533203 0.0025839 -4.70547e-21)
(0.528787 -0.0164976 -2.03742e-21)
(0.537993 -0.000889317 8.43776e-22)
(0.509118 -0.0578669 -4.90316e-22)
(0.500267 -0.0582314 -1.22473e-21)
(0.507091 -0.00304361 -3.78316e-21)
(0.504576 0.0112755 2.24931e-21)
(0.507042 -0.0475347 -5.35815e-23)
(0.585397 -0.00805397 1.55267e-21)
(0.50526 0.00626577 1.18989e-21)
(0.537283 -0.0408691 -1.24662e-21)
(0.505869 0.015459 -2.40301e-21)
(0.520122 -0.0516573 1.24565e-21)
(0.552713 -0.0292879 4.39002e-21)
(0.615104 0.0121813 8.25415e-23)
(0.511611 -0.0407537 -5.21284e-22)
(0.50551 0.00497153 1.05283e-21)
(0.505691 0.0138337 -1.92285e-21)
(0.502969 -0.0536826 -1.79943e-21)
(0.510495 -0.00761099 1.71017e-21)
(0.461043 -0.0286071 -9.31428e-21)
(0.477371 -0.0108964 7.32163e-21)
(0.321994 -0.0913088 -1.95617e-20)
(0.423852 -0.00871881 -7.39566e-21)
(0.58259 -0.0310284 6.28809e-21)
(0.669174 0.137981 -5.13476e-22)
(0.428523 -0.0371908 1.91637e-20)
(0.528266 -0.0118704 2.06463e-21)
(0.487327 0.00140186 6.46271e-22)
(0.537984 0.0114531 -1.06192e-21)
(0.496906 0.000683565 -2.55858e-21)
(0.5096 -0.0175986 5.0812e-21)
(0.523371 -0.0246525 -2.30267e-21)
(0.526928 -0.0187053 -4.65121e-22)
(0.537456 -0.00175598 -2.63282e-21)
(0.545054 0.00615287 -2.58015e-21)
(0.507717 -0.00707902 -7.39253e-21)
(0.41989 -0.0120872 1.02399e-20)
(0.452962 -0.0396924 3.65168e-21)