/*--------------------------------*- C++ -*----------------------------------*\
  =========                 |
  \\      /  F ield         | OpenFOAM: The Open Source CFD Toolbox
   \\    /   O peration     | Website:  https://openfoam.org
    \\  /    A nd           | Version:  10
     \\/     M anipulation  |
\*---------------------------------------------------------------------------*/
FoamFile
{
    format      ascii;
    class       volScalarField;
    location    "1150";
    object      epsilon;
}
// * * * * * * * * * * * * * * * * * * * * * * * * * * * * * * * * * * * * * //

dimensions      [0 2 -3 0 0 0 0];

internalField   nonuniform List<scalar> 
23845
(
0.042501
0.0594285
0.0573187
0.0138062
0.0409164
0.00243616
0.0765729
0.0107261
0.00177277
0.0258606
0.0239492
0.00206228
0.00339644
0.00212636
0.121929
0.0123373
0.00642139
0.00880708
0.00446821
0.00314568
0.033792
0.0210331
0.0278755
0.00177907
0.0262014
0.00119198
0.0518646
0.00288422
0.0103192
0.0031078
0.0153592
0.0243381
0.135144
0.00938664
0.00207626
0.00256643
0.0205322
0.00208772
0.00218971
0.00197038
0.00407677
0.00612834
0.00284635
0.00593297
0.00084963
0.00407561
0.0282084
0.0142757
0.0225075
0.0108281
0.0143684
0.0466609
0.0274274
0.00253805
0.0236132
0.00560069
0.0546629
0.0110436
0.0429534
0.0353136
0.010477
0.00635999
0.01069
0.0125903
0.00156875
0.00347692
0.0548113
0.000705584
0.000737565
0.00562055
0.0104673
0.0418642
0.001563
0.105743
0.00132403
0.117943
0.00206858
0.00221911
0.0113026
0.0095969
0.0394777
0.0961373
0.0596887
0.0110988
0.0642774
0.0020907
0.0804683
0.0287909
0.00152737
0.00797935
0.014036
0.00528807
0.0109558
0.00258271
0.0113546
0.0123631
0.00568515
0.016101
0.00129064
0.0323568
0.00668887
0.0594975
0.0507353
0.0135693
0.0128014
0.0114538
0.00245097
0.0011441
0.0470441
0.00579638
0.0213782
0.00211933
0.0891528
0.0215294
0.00268603
0.023991
0.00144435
0.0152709
0.0104629
0.0128121
0.00216448
0.0174109
0.00569176
0.021431
0.063272
0.00131893
0.0104115
0.0107071
0.0400056
0.0310538
0.0565706
0.0386353
0.0277027
0.00226152
0.0085476
0.0485295
0.0128547
0.00204181
0.0457441
0.00223183
0.0117548
0.00573579
0.00221486
0.00639465
0.00893028
0.00542125
0.0188639
0.0853575
0.0189151
0.00935151
0.127343
0.00232872
0.0693708
0.00278689
0.0827952
0.0167893
0.0470303
0.00228249
0.076355
0.0113157
0.0072299
0.11872
0.0117086
0.00162993
0.00212307
0.0120202
0.00229963
0.0159017
0.0030184
0.00535283
0.00229497
0.0149681
0.00173639
0.0180047
0.00163598
0.0111014
0.00610167
0.0221837
0.00109779
0.00225131
0.0325087
0.0285128
0.10327
0.0188673
0.0110145
0.00447231
0.00607956
0.0109895
0.0104584
0.00589005
0.011736
0.00221086
0.00217072
0.00239164
0.00791437
0.00211225
0.0122223
0.0106766
0.0212744
0.0228558
0.0137056
0.00232275
0.0167584
0.0342833
0.0109131
0.0115211
0.0541101
0.00232603
0.0509806
0.00989179
0.010357
0.0144767
0.00762533
0.00306085
0.0184999
0.0219429
0.0290518
0.00669382
0.0175551
0.0527547
0.00182426
0.113273
0.0123609
0.0138109
0.00553298
0.126339
0.0135248
0.00223673
0.00242559
0.00420728
0.00242842
0.0200085
0.002152
0.000830433
0.041886
0.0102178
0.0014993
0.0139559
0.00176362
0.0165911
0.0262524
0.0172549
0.0110698
0.0400769
0.0163697
0.0117732
0.00240716
0.000716627
0.011256
0.115694
0.00432867
0.00222182
0.0141656
0.00261483
0.101489
0.0136305
0.0153696
0.0124463
0.00274409
0.00192278
0.0328729
0.00230379
0.0103902
0.0207366
0.0180979
0.00170865
0.0111025
0.0257829
0.0198739
0.0131771
0.00221512
0.0136924
0.0156028
0.00227628
0.0187527
0.00214622
0.012235
0.00232799
0.0201392
0.0264312
0.0121472
0.00246407
0.0130517
0.0106842
0.00213648
0.0133599
0.018603
0.00225676
0.0112767
0.0950933
0.0110925
0.0179562
0.0119721
0.0122543
0.0111754
0.00211578
0.0165749
0.00243116
0.00212017
0.0111041
0.0815168
0.117434
0.0102084
0.0131116
0.00239174
0.013865
0.0137459
0.0151547
0.00631701
0.0113571
0.0160906
0.063053
0.00457359
0.00231869
0.0325789
0.0113106
0.0149103
0.0295667
0.0134467
0.00204494
0.0143675
0.0151811
0.0266039
0.0031392
0.109003
0.00231586
0.011727
0.0292046
0.0154931
0.00934167
0.0687575
0.0124829
0.013803
0.00227988
0.0159394
0.0148517
0.0200703
0.00840491
0.0051677
0.0112449
0.0169367
0.0221244
0.0214444
0.000902817
0.000883832
0.0236486
0.00225479
0.0123557
0.0115104
0.11113
0.0192166
0.0551394
0.0107486
0.0130948
0.0279453
0.00214905
0.00487261
0.00166443
0.0982349
0.0109316
0.0281137
0.00146024
0.0181186
0.00922427
0.0104501
0.00231752
0.0205216
0.00271417
0.0107534
0.00115681
0.00580959
0.0141265
0.0252018
0.00205714
0.00236672
0.0135826
0.0303994
0.0164517
0.00533023
0.0142532
0.105622
0.00236209
0.0271133
0.000831192
0.000861821
0.00215449
0.00245199
0.0111472
0.0131245
0.0110769
0.0610849
0.00510296
0.0166127
0.0150882
0.0168589
0.0118024
0.0176304
0.0010779
0.00600014
0.00232571
0.02471
0.0175526
0.0117213
0.0198438
0.0463006
0.108529
0.00228181
0.0197976
0.0113789
0.0122575
0.125442
0.000772375
0.0853402
0.0221866
0.0505549
0.0361512
0.0212617
0.0167003
0.00229152
0.0219081
0.0945532
0.00390839
0.00189913
0.0113856
0.0108495
0.0529414
0.0828084
0.0170843
0.0221835
0.0269504
0.00220492
0.00858928
0.0230698
0.00801858
0.00376925
0.00138677
0.00204804
0.00432168
0.0103659
0.0208511
0.115661
0.065211
0.01222
0.0380632
0.0172585
0.0164559
0.0032491
0.0196537
0.00230111
0.0151777
0.0111815
0.00224926
0.0537403
0.002291
0.000867753
0.0207356
0.0358714
0.0365831
0.0116289
0.00251277
0.0537311
0.0125578
0.0127058
0.0330284
0.00244208
0.00229442
0.00245243
0.0191439
0.000950124
0.111568
0.00299662
0.00234435
0.0160058
0.0110353
0.0145275
0.0389235
0.00191922
0.0165856
0.00281487
0.00755078
0.023329
0.019627
0.0147342
0.0198908
0.0132265
0.093002
0.00220551
0.00211348
0.060887
0.0198218
0.00118663
0.0789337
0.0123351
0.0208589
0.0110059
0.0252533
0.00147069
0.0329667
0.00138048
0.00229151
0.0741855
0.0126706
0.0258303
0.0234947
0.0113556
0.0113525
0.0186173
0.00309947
0.00284906
0.0221016
0.0145001
0.0347451
0.0197261
0.015141
0.00229592
0.000986987
0.0184162
0.119878
0.0905333
0.00493543
0.0262256
0.00260987
0.00922379
0.018648
0.00109138
0.0810509
0.105814
0.0131673
0.0305778
0.0115193
0.0103825
0.111448
0.0319486
0.0266826
0.00576642
0.00320539
0.00266097
0.0173825
0.0256334
0.0116643
0.0611435
0.00245523
0.0242387
0.02519
0.0076327
0.0240435
0.0201493
0.00296452
0.00295274
0.00280877
0.00272551
0.00210635
0.0207681
0.00313932
0.0109112
0.0663573
0.00493786
0.031302
0.00228372
0.00269139
0.0113061
0.0116072
0.0408629
0.00331771
0.00486738
0.0183212
0.0127966
0.00143935
0.0103527
0.00272131
0.00104089
0.0819785
0.00461681
0.00242182
0.0146934
0.0313791
0.0175949
0.0827557
0.0119475
0.0275225
0.00117609
0.00208926
0.00816614
0.0729582
0.019296
0.00452842
0.0015924
0.00168566
0.0123499
0.00162607
0.0280835
0.120651
0.0510017
0.0166003
0.0112698
0.00486299
0.000980074
0.0025858
0.00841724
0.00208625
0.0431913
0.00295389
0.0260653
0.106858
0.0176181
0.0325364
0.0126487
0.0268247
0.0883707
0.0157645
0.0235062
0.0501654
0.0555675
0.0312035
0.0239771
0.0511863
0.0266414
0.0480825
0.00323982
0.00280319
0.0270111
0.0105063
0.025882
0.0150867
0.0508788
0.0114329
0.00369997
0.00634596
0.00246133
0.0106038
0.00325907
0.00356607
0.0227525
0.00274042
0.00207605
0.100223
0.0513429
0.0148683
0.00121833
0.0160768
0.0399487
0.0122674
0.00290974
0.00290662
0.0385749
0.0316243
0.0372125
0.00251379
0.0308668
0.0530813
0.00262668
0.00217881
0.0250318
0.0118844
0.0112609
0.134494
0.0357177
0.0247921
0.0144074
0.0220554
0.0124971
0.00615938
0.00993896
0.0516879
0.00892751
0.00123556
0.00236136
0.0375316
0.0165377
0.0299665
0.00945462
0.0126395
0.0213063
0.0136648
0.0117999
0.022708
0.0107654
0.0248333
0.0197453
0.00911966
0.0246807
0.00917306
0.00504946
0.00842943
0.00880915
0.0350007
0.00523703
0.00737675
0.029329
0.0293883
0.00657183
0.00563126
0.0128829
0.014651
0.0166234
0.0194674
0.0216234
0.0111923
0.0235652
0.0101956
0.0230853
0.00872721
0.018081
0.00807753
0.00864616
0.00912967
0.00701295
0.00599214
0.0062647
0.00361867
0.00578494
0.0176681
0.00177914
0.00535151
0.00621049
0.00572037
0.00249534
0.0180185
0.00541143
0.0154288
0.0174091
0.0104579
0.00509176
0.00563386
0.00276862
0.0165978
0.0124799
0.0262869
0.00217909
0.0147203
0.00460074
0.00805091
0.00293508
0.00507155
0.0230764
0.00839432
0.0258731
0.00523183
0.00242674
0.00359856
0.00100484
0.00433633
0.0130739
0.0107151
0.0016656
0.00476597
0.0247643
0.00415463
0.00381715
0.00329986
0.0801417
0.00488021
0.000815857
0.0333231
0.00598219
0.0184738
0.0242499
0.0209938
0.0206076
0.018198
0.0238731
0.0052118
0.01078
0.015139
0.0193497
0.00972177
0.0116763
0.00768453
0.0578528
0.00688285
0.00374316
0.0207604
0.018976
0.0266855
0.0172619
0.0166312
0.00345261
0.0441753
0.0198247
0.00872696
0.0060474
0.00796585
0.01543
0.00216312
0.0175706
0.00402494
0.00383168
0.00598966
0.00423895
0.00386682
0.00560962
0.00543702
0.00879002
0.00524668
0.00448708
0.00509337
0.0371618
0.0104256
0.00369084
0.00757819
0.00648513
0.00491089
0.0262294
0.0162318
0.0220434
0.0118446
0.00542031
0.00353135
0.00546651
0.00497509
0.0528164
0.0218022
0.0208413
0.00960251
0.00372809
0.0107997
0.0111908
0.0171839
0.00402037
0.00588246
0.00177347
0.00221477
0.00720089
0.00256775
0.00258848
0.00128754
0.0035179
0.00153278
0.0020748
0.00166045
0.0015064
0.00118782
0.00284391
0.00386519
0.00225778
0.00238878
0.00866497
0.00518216
0.00599873
0.0376068
0.0225565
0.00112249
0.00163387
0.00469911
0.0257987
0.0159513
0.0231285
0.0140787
0.00952237
0.00367494
0.00388578
0.0052047
0.00802554
0.00841404
0.00336543
0.00561059
0.00325454
0.00657563
0.00203342
0.10091
0.00214425
0.0185156
0.00623854
0.0275618
0.00344804
0.00465805
0.00650434
0.00458016
0.0132878
0.0104521
0.0049151
0.0151841
0.00287112
0.00325054
0.00189614
0.0018579
0.0015271
0.00142345
0.00480896
0.00490297
0.00368677
0.0185296
0.00373181
0.0178941
0.019339
0.0184801
0.00515529
0.0141608
0.00474334
0.0017377
0.00679884
0.00137209
0.0111162
0.00337762
0.00147605
0.0163818
0.00313492
0.00200659
0.0149706
0.00334206
0.00917946
0.0176631
0.0113065
0.00537705
0.00975911
0.00357625
0.0078324
0.00359701
0.0186356
0.0314276
0.00220621
0.00974276
0.0135589
0.0146042
0.0305456
0.0168823
0.00438416
0.00865689
0.00736293
0.00632214
0.135259
0.0173919
0.00573908
0.0050027
0.0029255
0.0224611
0.0051141
0.126948
0.00476058
0.00156851
0.00433344
0.00272231
0.00558497
0.00449107
0.0045616
0.037964
0.00375572
0.0256574
0.00832555
0.025447
0.00455965
0.0116288
0.0112659
0.0140272
0.0146586
0.00781929
0.0160527
0.00866195
0.0162124
0.017791
0.0208762
0.00786471
0.0196832
0.0187939
0.0107745
0.0296735
0.0237256
0.0166925
0.0235979
0.00359201
0.0069625
0.00840906
0.00608813
0.00279893
0.00552601
0.01407
0.00604581
0.00344173
0.0164383
0.0135817
0.0172904
0.00676033
0.0325512
0.00331783
0.00507155
0.00543663
0.00491904
0.00939049
0.00201752
0.0166932
0.0312353
0.0541854
0.00307379
0.00455557
0.0201453
0.023269
0.00322625
0.0180208
0.0122801
0.0113359
0.0157505
0.0172277
0.00607887
0.0185703
0.0237487
0.0210681
0.0277995
0.0281721
0.030008
0.00313646
0.00837198
0.00825207
0.00451966
0.0128865
0.0156393
0.00481526
0.0241817
0.00321449
0.100135
0.00331193
0.00327226
0.0107758
0.00312327
0.000789147
0.00219081
0.00157876
0.00484833
0.00390126
0.00433238
0.0052715
0.0259319
0.0106977
0.00355334
0.0113293
0.00787
0.0248449
0.022012
0.0505668
0.0197641
0.00357763
0.0060436
0.00508583
0.00314158
0.00111987
0.00274355
0.0322807
0.0260015
0.0087279
0.0129924
0.0102168
0.0146163
0.0166776
0.0217724
0.00435064
0.0300166
0.0217883
0.0262664
0.0200233
0.0170132
0.017378
0.00910454
0.0152731
0.00531795
0.0135671
0.0105243
0.00589678
0.00930016
0.00820992
0.0074881
0.00475439
0.00465962
0.0122067
0.0223224
0.0248998
0.00341494
0.0183549
0.0034269
0.00228342
0.00704866
0.00205409
0.0123085
0.0067207
0.00585773
0.00573241
0.00557048
0.00511756
0.029336
0.00247932
0.00317406
0.0250825
0.0065046
0.00117365
0.0118505
0.0273548
0.0119901
0.0113184
0.0507321
0.00473732
0.0154923
0.0182199
0.0202232
0.00976234
0.00334407
0.0172704
0.0146612
0.0152531
0.0131957
0.0113946
0.0103775
0.0303458
0.00899957
0.0211149
0.00389739
0.00711567
0.0343575
0.00617533
0.00855298
0.0451622
0.00638964
0.00105919
0.00241137
0.00562753
0.00295546
0.00424117
0.00351751
0.00330649
0.0272691
0.00518364
0.00465254
0.029712
0.00301128
0.00326234
0.00329906
0.0459464
0.00487924
0.00418759
0.0272218
0.00222561
0.00132696
0.00369049
0.00425261
0.00401906
0.0182282
0.00232841
0.00410344
0.0129888
0.022633
0.0262726
0.0186716
0.0145679
0.003536
0.00775805
0.00538847
0.00618649
0.00356837
0.0272584
0.00832785
0.00310218
0.00309255
0.00959707
0.00845861
0.0260088
0.0118672
0.00359122
0.00471631
0.00323045
0.0245291
0.00764038
0.00165691
0.0229255
0.00380706
0.0120312
0.00339487
0.00234698
0.00293031
0.0106568
0.00482901
0.00386442
0.0209851
0.00340643
0.0259293
0.007998
0.00261748
0.0167767
0.00448113
0.0139095
0.0147017
0.00979763
0.0187997
0.0108498
0.00328554
0.0122694
0.0115762
0.00269765
0.00645471
0.00424295
0.00363647
0.00864133
0.00123047
0.00170584
0.0108124
0.00147356
0.00298926
0.0138122
0.00138103
0.00248415
0.0178344
0.00230605
0.00184323
0.0155579
0.0347063
0.0300142
0.00216106
0.00327844
0.0212323
0.00228252
0.00245096
0.0367178
0.0207799
0.0367195
0.00800463
0.0322462
0.00451046
0.00677744
0.0133274
0.0181258
0.0035216
0.015868
0.0426947
0.0342709
0.00339541
0.00450479
0.00307115
0.00217097
0.00288816
0.00539879
0.00401287
0.130645
0.00890259
0.00485577
0.024407
0.00761837
0.0205655
0.00317518
0.0274671
0.00494187
0.00768226
0.0378783
0.00419089
0.0101819
0.00279655
0.00355406
0.0531844
0.00279562
0.0468924
0.0159776
0.0240373
0.0161717
0.0119458
0.0318799
0.00397226
0.00340504
0.0260846
0.00414767
0.00432909
0.00423758
0.0380226
0.00277229
0.00307092
0.00394221
0.0443928
0.00375029
0.00724264
0.00661495
0.00301855
0.0166515
0.0100119
0.0124463
0.0431858
0.00202673
0.0160688
0.00382398
0.0120933
0.00271821
0.0478102
0.00831122
0.00757734
0.00343332
0.0110669
0.0155653
0.00682893
0.0199856
0.023757
0.00297667
0.00698735
0.00272803
0.0217352
0.0200256
0.00234728
0.010462
0.00812777
0.0116053
0.0117722
0.0164644
0.0066063
0.0152723
0.0164675
0.0410966
0.0103048
0.0327065
0.00222167
0.0122963
0.00345242
0.00326526
0.0644149
0.0384862
0.0222955
0.00232789
0.0358221
0.00781435
0.00635298
0.0411254
0.00668161
0.0461635
0.0102291
0.0469835
0.0156756
0.00232022
0.105891
0.0145257
0.0137747
0.011685
0.0402157
0.0459841
0.00292235
0.00430128
0.142442
0.033182
0.00332024
0.0461612
0.0486095
0.00453241
0.0328417
0.00445977
0.0407448
0.00775749
0.0117568
0.00160524
0.0359399
0.0369138
0.00213607
0.121882
0.0431501
0.00199081
0.0121074
0.00362279
0.021872
0.0337972
0.011072
0.00290675
0.0317277
0.0316787
0.00774843
0.0450201
0.00721032
0.0042021
0.0119077
0.0117166
0.0396763
0.00290373
0.00242726
0.0259067
0.00878324
0.00443703
0.007244
0.00284266
0.0138587
0.0127982
0.0340812
0.0629383
0.0448877
0.00300228
0.0139909
0.00307624
0.0109553
0.0153004
0.00622935
0.0105173
0.00202002
0.0434413
0.0182611
0.00315684
0.00293998
0.014333
0.02859
0.0463412
0.0513604
0.0176791
0.00690787
0.0129575
0.00234881
0.00310108
0.00404062
0.000954913
0.00254016
0.00460769
0.0358088
0.125831
0.00572564
0.00377911
0.00985022
0.0397427
0.00461746
0.0153707
0.00793532
0.0112063
0.00580909
0.0117836
0.0274245
0.0284124
0.0151588
0.0028061
0.0161964
0.0812195
0.0113415
0.00394747
0.0112397
0.0267578
0.0151595
0.0027048
0.00304803
0.00751172
0.0124921
0.0138956
0.0123445
0.00202397
0.013485
0.00405563
0.00269876
0.0580158
0.0130108
0.0336866
0.014584
0.0178089
0.0209396
0.00971262
0.0029625
0.0374264
0.00299741
0.00803505
0.00754596
0.0113472
0.0110709
0.0157938
0.00795759
0.0144541
0.0302635
0.0113395
0.0200656
0.00266292
0.0506494
0.00279642
0.00266097
0.0268203
0.024804
0.010472
0.0464313
0.0126856
0.00322096
0.0251117
0.00283094
0.0290814
0.0385442
0.00283624
0.0190431
0.0501654
0.00577918
0.0417163
0.019155
0.0332533
0.00805704
0.0469994
0.0432308
0.00289956
0.00977166
0.0428765
0.0029335
0.00255432
0.0368698
0.00240943
0.0127323
0.0412154
0.0298043
0.0848336
0.0013048
0.00215118
0.00226881
0.0534724
0.00263196
0.00303309
0.00789932
0.0147167
0.0038758
0.00249527
0.00268036
0.0130208
0.0129551
0.00261552
0.01131
0.0023314
0.00244237
0.00206575
0.0750266
0.0235726
0.0025509
0.00294242
0.020799
0.0319149
0.00331536
0.0165281
0.00250814
0.00237286
0.0325605
0.0030058
0.0278176
0.00223634
0.0175427
0.0107326
0.142503
0.0138777
0.0987903
0.0660522
0.00254878
0.0460933
0.00317131
0.00279078
0.00671496
0.0231527
0.00292359
0.0137121
0.0228941
0.00421219
0.0039694
0.0156145
0.0489692
0.0125391
0.0774618
0.0273951
0.0305367
0.00266171
0.042285
0.0281402
0.00215854
0.0190045
0.00234184
0.00249884
0.0524496
0.0103258
0.0103962
0.0612139
0.0560763
0.00324055
0.0108911
0.00441927
0.0270255
0.00258933
0.0402569
0.0416514
0.00218265
0.033616
0.0027611
0.00243358
0.00231383
0.0111804
0.0149265
0.104825
0.0347767
0.00369131
0.0591254
0.00253801
0.00248642
0.00215211
0.0328363
0.0111891
0.00234171
0.00711753
0.0622302
0.0146579
0.0167002
0.00273777
0.011077
0.00371002
0.00410887
0.00541966
0.00108663
0.00525752
0.00180911
0.0023799
0.114339
0.00426196
0.0073833
0.00261695
0.0113205
0.0121305
0.0346022
0.00109908
0.011785
0.031605
0.00966507
0.00277006
0.032935
0.00201597
0.0273232
0.012801
0.0114999
0.00755174
0.003895
0.0611904
0.0491933
0.00253323
0.00388624
0.0547118
0.0419212
0.0213602
0.00541726
0.0310601
0.00441987
0.0116678
0.007628
0.0124486
0.00244382
0.00373888
0.0070867
0.0141639
0.0110261
0.0025352
0.0118503
0.0142098
0.0132128
0.0129458
0.019882
0.030379
0.026513
0.00267273
0.038554
0.0405147
0.0347126
0.000995947
0.0155924
0.0190061
0.0122244
0.0411074
0.00192983
0.00278685
0.0321679
0.108067
0.0165548
0.0596626
0.0016766
0.00242576
0.00495679
0.0037664
0.013037
0.00363803
0.0024378
0.0242571
0.0272904
0.0673752
0.0599497
0.0993598
0.0495891
0.052939
0.020754
0.0139771
0.0366461
0.00658786
0.0329012
0.00155587
0.0191377
0.002123
0.0601742
0.0109005
0.00687184
0.0123286
0.00205921
0.0072808
0.00712297
0.00271859
0.0127933
0.00264313
0.0512925
0.0404681
0.00354742
0.030314
0.0316707
0.0159373
0.0326882
0.147012
0.010855
0.0110401
0.0639154
0.0106656
0.0239338
0.00123322
0.0604873
0.00131708
0.0142722
0.0122329
0.00430554
0.0383451
0.0298444
0.00160807
0.011577
0.00374033
0.0726204
0.0308971
0.00707352
0.0976495
0.00654119
0.0271005
0.003167
0.00735059
0.0586255
0.0173022
0.00833723
0.00224282
0.00300463
0.0146436
0.00424476
0.0793492
0.0143369
0.00813002
0.0628376
0.00208247
0.0106419
0.0100721
0.00265664
0.0274675
0.0626391
0.035402
0.022727
0.0137403
0.0591742
0.00269452
0.0159393
0.00232141
0.00253953
0.0125957
0.00204711
0.047493
0.0624131
0.062676
0.0159369
0.0184091
0.028795
0.0105155
0.00270543
0.0090045
0.00299905
0.0134498
0.00691115
0.00445753
0.00915674
0.124772
0.00236602
0.082688
0.0446833
0.0125595
0.0115119
0.0421873
0.0335759
0.00216868
0.140594
0.003427
0.00230916
0.00235518
0.132902
0.00367381
0.00231805
0.00301463
0.0355455
0.00441649
0.0111093
0.00729675
0.0111982
0.00847699
0.00285093
0.0260339
0.00426873
0.004363
0.0306294
0.00194017
0.0105739
0.0037028
0.0406524
0.0134287
0.00216501
0.0215169
0.0333334
0.0640913
0.0042349
0.0026217
0.087227
0.0646549
0.0811352
0.0579934
0.0701384
0.0539675
0.00221162
0.0234309
0.0571945
0.0059265
0.0120284
0.00205576
0.0105273
0.0253212
0.0106247
0.0162598
0.0754992
0.0190488
0.0016937
0.00202516
0.0021782
0.0123411
0.0111411
0.0164232
0.0267253
0.0586617
0.00797883
0.00257789
0.0566514
0.104386
0.0113217
0.00479059
0.0205296
0.00410759
0.0111499
0.0263005
0.0123731
0.0106408
0.0102729
0.0140125
0.00464368
0.0976434
0.0126039
0.0593127
0.0401824
0.0106505
0.0117798
0.0110779
0.0322647
0.0045056
0.0139439
0.0219991
0.00551101
0.0116315
0.00662634
0.0282704
0.0124694
0.0282806
0.0552179
0.0501022
0.00599995
0.0487653
0.103261
0.00211274
0.0502162
0.00281787
0.0113242
0.0424145
0.00231232
0.00394724
0.0327045
0.0025892
0.00425022
0.00248831
0.00181509
0.0495365
0.00225768
0.0409856
0.0128635
0.0279343
0.00245262
0.00565177
0.00344134
0.012533
0.00211554
0.0832244
0.0822403
0.0264544
0.0307793
0.0143612
0.0130504
0.0322115
0.00551871
0.0716588
0.0697986
0.0275528
0.0074858
0.0021506
0.00229154
0.025977
0.0317189
0.00396285
0.00250526
0.00412428
0.0140991
0.002379
0.00673726
0.0101096
0.0141821
0.016609
0.00690139
0.00525266
0.00287781
0.0613856
0.00600524
0.0117619
0.00819361
0.0103943
0.00976775
0.00790377
0.0103308
0.0112957
0.0466557
0.0268784
0.0186969
0.00993584
0.0437853
0.00228516
0.0102567
0.00934878
0.00191289
0.00418232
0.0333161
0.0704965
0.00195267
0.0422503
0.0133555
0.0865241
0.0133704
0.0563914
0.00333797
0.0112005
0.0612633
0.0101635
0.0235681
0.0745691
0.0515985
0.00202292
0.0196456
0.00214016
0.0404904
0.0287595
0.0181344
0.00244107
0.00555369
0.0431918
0.00404467
0.00919768
0.00701102
0.0329828
0.00232717
0.0241169
0.0019079
0.0742715
0.00203234
0.00154468
0.00711965
0.00768658
0.0618141
0.0276516
0.00394192
0.00679923
0.00950765
0.0020492
0.0151146
0.00621367
0.0197143
0.0111496
0.0950355
0.00211918
0.00222783
0.0455091
0.0613798
0.0188957
0.14441
0.0552903
0.00393404
0.0258925
0.0786742
0.00252818
0.0639903
0.023721
0.0363187
0.00697218
0.0710874
0.00208358
0.0486834
0.00212683
0.0461618
0.0113333
0.00223214
0.0906386
0.00276958
0.0431532
0.0374896
0.00599112
0.00279831
0.0987758
0.124802
0.00776497
0.0276083
0.0606896
0.00173256
0.0147833
0.00669926
0.0118218
0.0036655
0.00199328
0.0128732
0.0695722
0.00473369
0.0416205
0.0270444
0.00247718
0.00212272
0.00217008
0.00239153
0.00731229
0.0155452
0.0193454
0.00572092
0.0516424
0.0110802
0.00344765
0.00383172
0.00240027
0.0809273
0.0486965
0.00223579
0.00932725
0.0256206
0.00852359
0.0634118
0.0384116
0.00216039
0.00337007
0.0109924
0.00172047
0.00405299
0.0332151
0.0544154
0.00216429
0.00220877
0.0132937
0.0664741
0.0842055
0.00236271
0.00142891
0.107811
0.0142872
0.00152877
0.00220457
0.0532285
0.046371
0.102657
0.00722033
0.0608652
0.0155773
0.115685
0.0631071
0.00236841
0.0374344
0.00235787
0.0168144
0.00263791
0.00296083
0.0104896
0.0153201
0.0090094
0.0253761
0.00132721
0.00725097
0.0139127
0.0396317
0.00603321
0.0858371
0.026718
0.0403988
0.0026369
0.092022
0.0230756
0.0105563
0.0116083
0.0121239
0.0421698
0.001346
0.0308992
0.0501122
0.00138465
0.0190583
0.0111087
0.0025968
0.00261314
0.00221277
0.0112329
0.00582587
0.0029045
0.0527476
0.139836
0.00149292
0.0533565
0.0597066
0.0913788
0.0217964
0.0296843
0.0680756
0.00230142
0.0217388
0.0162828
0.00205305
0.00411114
0.0024784
0.00150435
0.00382285
0.0250507
0.0103154
0.0706111
0.0018801
0.0114624
0.00236342
0.00259968
0.00208754
0.065294
0.0294475
0.00459897
0.00246028
0.0280954
0.0103487
0.0383756
0.0366484
0.0415847
0.0296152
0.00227495
0.00227214
0.011894
0.00223953
0.0110836
0.00260722
0.0204062
0.047506
0.0149214
0.0676743
0.00285775
0.00207049
0.0214631
0.0285376
0.0171289
0.0143582
0.0115049
0.0120789
0.127121
0.0900426
0.0320028
0.0727651
0.0135967
0.0018426
0.0107447
0.00770436
0.0381555
0.00223788
0.00214159
0.00742937
0.0363667
0.0144306
0.0191028
0.0106411
0.0119383
0.00231515
0.0670152
0.0255215
0.0266568
0.00226343
0.138282
0.067293
0.0331304
0.00125894
0.0710469
0.0167495
0.0141916
0.00202612
0.0161912
0.0065863
0.00259539
0.0135218
0.0152519
0.0235846
0.0197677
0.116057
0.0560052
0.00247354
0.0493206
0.00220161
0.010847
0.00623058
0.0408426
0.00254223
0.00219275
0.0740085
0.0102698
0.00227478
0.0713672
0.0260229
0.0242715
0.0022743
0.00225419
0.0111098
0.0331644
0.00195097
0.00231562
0.00222155
0.0545372
0.00245561
0.00257986
0.00747659
0.004735
0.0569438
0.00356346
0.028771
0.00201894
0.0112207
0.0653668
0.0176419
0.0236437
0.0118579
0.00229031
0.00166474
0.00168779
0.00256343
0.0321482
0.00449749
0.00302148
0.0530823
0.0110229
0.0114313
0.046846
0.0138936
0.00274744
0.00248147
0.00313381
0.0122011
0.0158469
0.00147356
0.0412331
0.00986675
0.0847752
0.0741642
0.01327
0.00465099
0.0720417
0.0025468
0.00204895
0.0130416
0.104501
0.0040459
0.00218907
0.012957
0.0158121
0.00221807
0.00225875
0.0195725
0.0117722
0.00200916
0.00220569
0.0106511
0.00691792
0.0411048
0.00200389
0.121506
0.0648517
0.00198031
0.073259
0.0109069
0.0396332
0.0406787
0.0644555
0.0609547
0.0768229
0.0160633
0.00936147
0.00737075
0.0021046
0.00266569
0.0108597
0.0089534
0.0366974
0.0697477
0.00227172
0.00170033
0.00224318
0.00208635
0.00216244
0.00222269
0.0118052
0.00510687
0.0017634
0.0108038
0.00198252
0.00235496
0.00337039
0.00227009
0.0315101
0.0313984
0.0171306
0.0167324
0.0108293
0.0329898
0.00656814
0.0104178
0.00178278
0.0128396
0.00216705
0.0140418
0.0711221
0.014426
0.00443787
0.00195151
0.00658315
0.0386906
0.0384052
0.0110162
0.00255802
0.00801863
0.00224309
0.0585514
0.0108397
0.0167085
0.00321816
0.00349613
0.012117
0.00810242
0.034587
0.0190176
0.00490085
0.00199042
0.00239576
0.00395833
0.0493259
0.0218508
0.0831803
0.0229663
0.0106427
0.0457667
0.0242231
0.026059
0.0176192
0.0478371
0.0110295
0.00295008
0.0663554
0.0634637
0.0112279
0.0108437
0.0171923
0.00236592
0.0114952
0.00742442
0.0142114
0.0872863
0.0174714
0.0051078
0.00781844
0.0475459
0.0764899
0.0019542
0.0126648
0.0128469
0.00486485
0.00226526
0.00229332
0.00108318
0.00454729
0.00279299
0.00222255
0.130467
0.0114806
0.0518906
0.0560445
0.0129242
0.00217997
0.0215774
0.0224467
0.0164916
0.00989035
0.012581
0.00225035
0.0992417
0.037808
0.0678283
0.000978651
0.00195439
0.00208971
0.0148112
0.0166808
0.0119502
0.00189484
0.0107725
0.042901
0.00224494
0.0013044
0.00501908
0.0767873
0.0016985
0.00628953
0.0107701
0.0128795
0.00336979
0.0864826
0.0364956
0.0983593
0.0131948
0.0206591
0.0260124
0.0024075
0.026093
0.133035
0.0124386
0.00702251
0.0127007
0.0549384
0.0193421
0.0145003
0.0109459
0.0284967
0.00227565
0.0338821
0.00111453
0.00238062
0.00228677
0.0373543
0.0117956
0.0399136
0.0899815
0.0118546
0.0222381
0.00169743
0.0191375
0.00223983
0.00929449
0.0273033
0.0246765
0.00188286
0.00236576
0.0488116
0.00111532
0.0565711
0.00154838
0.0552821
0.00259558
0.0275243
0.00187061
0.0506476
0.0123766
0.0343966
0.0561169
0.0232222
0.0255336
0.00109189
0.0484665
0.0302135
0.0233597
0.0195052
0.0118485
0.0250013
0.029494
0.00227351
0.0304041
0.048114
0.00626086
0.0519553
0.09227
0.00199012
0.0112897
0.00307153
0.066539
0.00247544
0.00240599
0.00228388
0.0366614
0.127737
0.0261242
0.0124227
0.0191923
0.00202958
0.00940902
0.00306443
0.00592865
0.00238287
0.0109699
0.0101059
0.00966313
0.00216883
0.075689
0.071711
0.00175847
0.00554657
0.0324396
0.0370723
0.0277126
0.00210942
0.00222153
0.0102142
0.0349405
0.00259616
0.00200821
0.0838657
0.0252966
0.00177089
0.00597068
0.021645
0.02096
0.0361443
0.0344373
0.0270051
0.010498
0.010549
0.047559
0.0548681
0.0029369
0.0117838
0.0107799
0.0022517
0.00286624
0.0104865
0.00258994
0.026446
0.0511114
0.00330723
0.0331022
0.0967928
0.00310079
0.0148763
0.00384048
0.0328592
0.0199216
0.0094809
0.0112777
0.0895791
0.0103739
0.00589619
0.011043
0.00624511
0.0829886
0.0397053
0.0427205
0.00919536
0.00620917
0.00354716
0.0106167
0.00148778
0.00123612
0.00959953
0.0200282
0.00391404
0.00876597
0.0093743
0.00237643
0.042708
0.0106712
0.0113011
0.00202056
0.129616
0.00389452
0.00215089
0.00437851
0.0281683
0.00309632
0.00316624
0.0126879
0.00263794
0.00361689
0.00992451
0.0512465
0.00375867
0.0479009
0.0104042
0.00597927
0.03762
0.0166322
0.00360516
0.112511
0.0121002
0.0670347
0.00416485
0.0260708
0.00351331
0.0273803
0.134018
0.0032513
0.0173094
0.00977558
0.0111156
0.00221061
0.00224366
0.00448807
0.00216714
0.00286922
0.00352251
0.0169456
0.0105999
0.00256694
0.00214669
0.0032356
0.0179381
0.0321628
0.0338993
0.0147455
0.00916951
0.135141
0.00258401
0.00237413
0.00404864
0.00244601
0.00245531
0.0203651
0.00365339
0.00510485
0.0286224
0.0106253
0.0102467
0.038191
0.0433536
0.0025515
0.0616789
0.0121839
0.0226518
0.0256333
0.0170784
0.0162327
0.0386671
0.00287519
0.0143304
0.00199386
0.0117891
0.00146388
0.0384884
0.00665882
0.00344103
0.0128046
0.0297335
0.0263886
0.0023438
0.021617
0.0296816
0.0174988
0.00114907
0.00538824
0.00640186
0.01938
0.0071677
0.124167
0.0228902
0.0064536
0.0106686
0.00137016
0.00211197
0.00813153
0.00208851
0.0403955
0.014511
0.00214648
0.00476464
0.0324532
0.00682145
0.0490629
0.0215539
0.0238075
0.00595645
0.00163783
0.0232547
0.0736988
0.00248655
0.0015036
0.0106402
0.00163694
0.00270903
0.0242101
0.00699066
0.0423896
0.0263999
0.0555879
0.00707812
0.0233449
0.00170889
0.00192769
0.00263996
0.032289
0.000980182
0.000838733
0.00122557
0.0123287
0.0104558
0.00137244
0.0288861
0.0645881
0.0379835
0.00221843
0.0224901
0.0969764
0.0312531
0.00268168
0.0138613
0.0029996
0.0567459
0.00153434
0.0112164
0.0274919
0.0309095
0.00216699
0.00325777
0.0129182
0.0356386
0.0464215
0.00430168
0.0463484
0.00123162
0.00249328
0.0280353
0.0132083
0.00258508
0.04364
0.0128767
0.0023659
0.010638
0.0267312
0.0110495
0.0016468
0.00229161
0.0267064
0.00981685
0.00220707
0.0259406
0.0620405
0.036534
0.0126225
0.00151357
0.00242257
0.014073
0.0505305
0.0143525
0.0544378
0.0807557
0.0691892
0.0021592
0.00219303
0.00461261
0.00211737
0.00220392
0.0290506
0.0386429
0.00230685
0.00238873
0.00227825
0.00122711
0.0216331
0.0157695
0.0128251
0.00108621
0.000964311
0.00108062
0.0139555
0.0288595
0.0107303
0.00235992
0.041375
0.00408583
0.00422252
0.0402482
0.00408569
0.0172986
0.0286727
0.00197535
0.0125693
0.00204631
0.0122898
0.0111673
0.00907692
0.0660502
0.00229376
0.0246786
0.0307427
0.0134166
0.00403615
0.0761929
0.0882337
0.00238008
0.00179488
0.0109068
0.0125841
0.00609522
0.035113
0.0731384
0.0136467
0.0188416
0.0848102
0.0271663
0.0104862
0.0456226
0.0397465
0.0730514
0.043429
0.0115633
0.0528508
0.000940365
0.00293367
0.00179881
0.0133873
0.00172154
0.0656057
0.0228715
0.00221921
0.00192009
0.000750384
0.000833307
0.00186453
0.0140374
0.0221029
0.0111704
0.0258291
0.0261821
0.0149152
0.00169462
0.00209419
0.0127955
0.00436028
0.00236707
0.00225153
0.00288956
0.0163147
0.0021994
0.0104392
0.00212528
0.00403553
0.0228841
0.0012774
0.0114256
0.0135607
0.0513865
0.0984293
0.00624361