/*--------------------------------*- C++ -*----------------------------------*\
  =========                 |
  \\      /  F ield         | OpenFOAM: The Open Source CFD Toolbox
   \\    /   O peration     | Website:  https://openfoam.org
    \\  /    A nd           | Version:  10
     \\/     M anipulation  |
\*---------------------------------------------------------------------------*/
FoamFile
{
    format      ascii;
    class       volScalarField;
    location    "1150";
    object      k;
}
// * * * * * * * * * * * * * * * * * * * * * * * * * * * * * * * * * * * * * //

dimensions      [0 2 -2 0 0 0 0];

internalField   nonuniform List<scalar> 
23845
(
0.0801777
0.0956647
0.0701651
0.0464723
0.090852
0.0244539
0.0824418
0.0343792
0.0195856
0.0636448
0.0767481
0.0229186
0.0267715
0.0220668
0.0909664
0.0465365
0.0387944
0.0477993
0.0297034
0.0279972
0.0669868
0.0731883
0.0631992
0.0194982
0.0693444
0.0153935
0.0752019
0.0265638
0.0199562
0.0276259
0.0502643
0.018507
0.086445
0.0487188
0.0230102
0.0256133
0.0158208
0.0230623
0.023455
0.0208657
0.0280195
0.0390005
0.024163
0.0389555
0.0129405
0.0300508
0.0778559
0.0508141
0.0235535
0.0152967
0.0300556
0.0720742
0.0196668
0.0244985
0.0179326
0.0352479
0.0938342
0.0366791
0.07674
0.0737832
0.0270267
0.0401008
0.0443075
0.0245297
0.0180497
0.0274658
0.0766993
0.0118663
0.0120503
0.0331971
0.0310176
0.0616083
0.0176697
0.0882703
0.0163421
0.0911836
0.0229259
0.0236371
0.0405407
0.0469419
0.0694
0.0892159
0.0969029
0.0373542
0.0678873
0.0230899
0.0874263
0.0193687
0.0178386
0.0415072
0.026933
0.0317341
0.021357
0.0255961
0.0365087
0.027391
0.0359488
0.0536945
0.0161599
0.0834739
0.0385315
0.0782503
0.0977583
0.01117
0.0204849
0.0389965
0.0244125
0.0150964
0.0754019
0.0382106
0.0726841
0.0232099
0.0798372
0.0603382
0.026183
0.0591173
0.0170826
0.050409
0.0206328
0.0318772
0.0233834
0.0221211
0.0334981
0.0448264
0.0795384
0.016221
0.028272
0.0152001
0.0547928
0.0785691
0.0548142
0.0915108
0.0827347
0.023155
0.0435729
0.0913484
0.0101912
0.0228008
0.0746084
0.0236481
0.0172694
0.0378681
0.0236645
0.0406095
0.0408516
0.0371549
0.0541599
0.081533
0.0346171
0.0438972
0.0879603
0.0219333
0.0892494
0.0247952
0.0762337
0.0611469
0.0973983
0.0240929
0.0610122
0.0254023
0.0375145
0.0906761
0.0361233
0.0185124
0.020362
0.0515982
0.0236616
0.0228295
0.0272768
0.0370069
0.0235289
0.0473777
0.0191896
0.0436148
0.0185142
0.0387573
0.033846
0.0700476
0.0148064
0.023907
0.0845937
0.0799794
0.0891766
0.0691112
0.044628
0.030632
0.038893
0.0362424
0.0183462
0.0380082
0.0223058
0.0225181
0.022233
0.0239542
0.0387512
0.0217189
0.0163021
0.018647
0.0133108
0.0737619
0.0570241
0.022885
0.0344784
0.0893237
0.0362915
0.0360993
0.0666605
0.0239633
0.081147
0.0503867
0.0500908
0.0213164
0.0372587
0.0272665
0.0260433
0.0171937
0.0843891
0.0410441
0.0103589
0.0565607
0.0190721
0.0903119
0.0158748
0.0534854
0.0377461
0.0890706
0.0105681
0.0226595
0.0244412
0.0284868
0.0247205
0.0253539
0.0233834
0.0128221
0.0931596
0.0238971
0.0175637
0.0478706
0.0191881
0.0477616
0.0215053
0.0526047
0.038296
0.0929671
0.0236513
0.0463646
0.0241001
0.0119448
0.0376154
0.0908058
0.0314072
0.0237946
0.0298835
0.0229562
0.0882417
0.0269027
0.0349142
0.0315019
0.0263981
0.0203826
0.0174771
0.0242354
0.0294215
0.0709477
0.0656358
0.0191386
0.0398233
0.0449775
0.0587529
0.0460206
0.0236473
0.0448311
0.0297204
0.0229306
0.0693653
0.0220084
0.0306555
0.0232022
0.0207117
0.0624975
0.0397305
0.0245921
0.0325561
0.0458643
0.0233457
0.0293487
0.0466123
0.0223376
0.0360223
0.0837324
0.0389229
0.0272387
0.0253898
0.0305344
0.0375429
0.023219
0.0305952
0.0240234
0.0232538
0.0221908
0.0610822
0.0872886
0.0235866
0.0464242
0.0237666
0.0481734
0.0243718
0.0298249
0.0373286
0.0152668
0.0293538
0.0898604
0.0308073
0.0236752
0.0628528
0.0165601
0.0293071
0.0849019
0.0259073
0.0201921
0.0209159
0.0221455
0.0369722
0.0276318
0.0888673
0.0239644
0.0426138
0.0751675
0.0353212
0.0494287
0.0789689
0.0512065
0.0287934
0.0241336
0.0341268
0.0486732
0.0531717
0.0469074
0.0360895
0.0407463
0.0489212
0.0354251
0.0734182
0.0133652
0.0131813
0.0194011
0.0240002
0.0289758
0.041641
0.0825706
0.0535997
0.0537773
0.0147842
0.031036
0.0199045
0.0221466
0.035483
0.0184581
0.0860263
0.0376062
0.048253
0.0173709
0.0534685
0.042906
0.0193853
0.0236613
0.0400383
0.0261567
0.0213179
0.0151806
0.0384264
0.0252954
0.0292407
0.0228927
0.0245017
0.0282806
0.0590469
0.0501247
0.0366682
0.0438249
0.0899456
0.024533
0.0620673
0.0128044
0.0130678
0.0233593
0.0247454
0.039953
0.0572042
0.037697
0.078705
0.0361507
0.0256805
0.0217716
0.0285045
0.0236079
0.0661416
0.0145649
0.0342769
0.0243785
0.0573182
0.0556956
0.0343765
0.0510204
0.0833519
0.0902267
0.0237848
0.0271821
0.0197468
0.0327753
0.0909976
0.0123802
0.0850823
0.0385498
0.0981856
0.0643022
0.0614904
0.0658669
0.0239406
0.0572979
0.0618929
0.0313604
0.0204178
0.0415199
0.0314048
0.0862282
0.0565579
0.0528349
0.0483442
0.0502898
0.0223357
0.0468931
0.0348075
0.0461265
0.0295903
0.0166462
0.0228495
0.0301351
0.0228964
0.0498805
0.0907629
0.0479714
0.0194806
0.0522425
0.0540471
0.0291669
0.0282564
0.0615758
0.0240259
0.045912
0.0405013
0.0216652
0.0422662
0.0241853
0.0131397
0.0348409
0.0763093
0.091449
0.0326013
0.0241402
0.0794163
0.0449368
0.0102134
0.0766924
0.0247348
0.0239501
0.0243661
0.0258688
0.0137143
0.0811656
0.0270618
0.0239715
0.0530734
0.0304068
0.0263907
0.0916291
0.0199041
0.0247043
0.0259609
0.039455
0.0693617
0.0612914
0.0500241
0.071581
0.058097
0.0874661
0.0236412
0.0231843
0.0761468
0.0388944
0.0154264
0.0626526
0.0282684
0.064453
0.0356501
0.073394
0.0171602
0.0597075
0.0168021
0.0241607
0.0872685
0.0187394
0.0399607
0.0707042
0.0387473
0.0398849
0.0680778
0.0249613
0.0266675
0.0389257
0.0496332
0.0425029
0.0157958
0.0512139
0.0231532
0.0139645
0.0584693
0.0811764
0.0745393
0.0349604
0.0152204
0.0245145
0.048845
0.0295975
0.0146295
0.0841385
0.0891558
0.0267103
0.0639144
0.0227127
0.0245664
0.0696926
0.0870293
0.0639739
0.0347076
0.0253747
0.0251424
0.0336338
0.0764282
0.0413456
0.0684064
0.0236941
0.0604472
0.0609211
0.0381066
0.0593613
0.0722101
0.0248398
0.0267546
0.0245301
0.024494
0.0231786
0.0440567
0.026324
0.0360788
0.0906309
0.0354651
0.0419661
0.0241581
0.0258877
0.0374874
0.0422809
0.0824487
0.0287271
0.0351895
0.0235925
0.021908
0.0169854
0.0221313
0.0234154
0.0142941
0.0848709
0.0310978
0.0243209
0.0500978
0.0841339
0.039444
0.0669722
0.0324136
0.078659
0.0151586
0.0230437
0.0393309
0.0773737
0.0311625
0.0343179
0.0178214
0.0183617
0.0331462
0.0181016
0.0659743
0.0868307
0.0856996
0.0654308
0.0290147
0.0355189
0.0138532
0.0244257
0.0467564
0.0230104
0.0670387
0.0264807
0.078876
0.0898278
0.0477307
0.080996
0.0323747
0.078767
0.0859129
0.059145
0.0699586
0.0985219
0.0928212
0.0845303
0.0329817
0.0911835
0.0814801
0.0988248
0.0281733
0.0255907
0.0797247
0.0272294
0.0761551
0.059013
0.0967842
0.0551015
0.0267463
0.0407902
0.0219301
0.0428769
0.0261845
0.0278756
0.0664763
0.0259981
0.0229994
0.082937
0.094841
0.0501146
0.0154254
0.0642449
0.0859562
0.0556223
0.0270042
0.0241875
0.0771951
0.0845941
0.0711643
0.0224898
0.0794166
0.0611664
0.0259439
0.0235836
0.0794269
0.040731
0.0258428
0.0804704
0.0416453
0.0679944
0.035635
0.0736881
0.0553033
0.0356378
0.0492825
0.099239
0.0456694
0.0155233
0.0214892
0.0916402
0.0545017
0.082014
0.0409048
0.0579407
0.0705508
0.0603186
0.0560641
0.0768501
0.0535649
0.0794735
0.0673701
0.0462746
0.0757848
0.049417
0.0351931
0.0472981
0.0455371
0.0879265
0.0341403
0.0442434
0.0841578
0.0780222
0.0416258
0.0368946
0.0586595
0.0625745
0.0665007
0.0718083
0.0753668
0.0546748
0.0780176
0.0521741
0.0724571
0.0482109
0.0639877
0.046363
0.0467863
0.0472849
0.0431579
0.0396723
0.0406591
0.0268277
0.0368769
0.0562482
0.0192588
0.0355401
0.0381963
0.0388165
0.0247217
0.066657
0.0377052
0.0639029
0.0678298
0.0526538
0.0365184
0.036485
0.0265682
0.0559385
0.0494749
0.0810007
0.0214124
0.0622863
0.0346828
0.045743
0.0272199
0.0346205
0.0770189
0.0461061
0.0794268
0.0369497
0.0233401
0.0292878
0.0140694
0.0335952
0.0557389
0.0322608
0.0183098
0.0352598
0.0794213
0.0328832
0.0304104
0.0286371
0.0821526
0.0344917
0.012676
0.0862264
0.0374723
0.0397093
0.0729864
0.0682682
0.0736978
0.0695001
0.0784113
0.0359338
0.0536877
0.0624905
0.0705353
0.0509897
0.0489342
0.0451888
0.0990993
0.0426617
0.0311815
0.0740874
0.0709138
0.0816875
0.0506007
0.0609603
0.0291258
0.0971744
0.0663283
0.0463743
0.0399395
0.0460229
0.0289221
0.0220818
0.0645529
0.0323072
0.0284678
0.0394165
0.0331352
0.0316676
0.0383716
0.0355265
0.0464126
0.0360679
0.0342016
0.0346796
0.0836717
0.0522197
0.029994
0.0444179
0.041083
0.033462
0.0814095
0.0618942
0.0723285
0.0527217
0.0364927
0.029227
0.0360127
0.0348491
0.0984043
0.066849
0.0738964
0.0458532
0.0310612
0.0534634
0.0232902
0.0640306
0.0278844
0.0332507
0.0186634
0.0208272
0.036337
0.0223996
0.0224671
0.0159572
0.0260979
0.0173586
0.0201303
0.0180732
0.0171902
0.0153246
0.0235173
0.0273174
0.0210092
0.0216091
0.0394022
0.0366573
0.0395603
0.0608767
0.0766762
0.0148293
0.0186252
0.0343972
0.0729579
0.0651909
0.0740701
0.0613516
0.048378
0.0265781
0.0274028
0.0314705
0.0382403
0.0473337
0.0286656
0.0373371
0.0263588
0.0356494
0.0227618
0.0886263
0.023378
0.0595034
0.0390914
0.0829556
0.0299009
0.0321417
0.0347188
0.0295492
0.0470803
0.0426883
0.0305559
0.0496882
0.0236709
0.0251011
0.0192441
0.0190095
0.0172444
0.016661
0.0316341
0.0358348
0.03095
0.0608668
0.0303144
0.0611533
0.0606607
0.0698302
0.0312436
0.0482969
0.0300536
0.0183809
0.0354089
0.0163702
0.0437393
0.0255737
0.0169638
0.0511952
0.0246426
0.0197866
0.0629358
0.0281224
0.0483009
0.0570419
0.0546094
0.0362172
0.0509388
0.0288265
0.0455039
0.0305557
0.0668857
0.0353664
0.0237384
0.0509135
0.0598743
0.0622352
0.0846589
0.0667583
0.033445
0.0403812
0.0440078
0.0405264
0.0902784
0.0222345
0.0388078
0.0361631
0.0261027
0.0642505
0.0351345
0.0916767
0.0350348
0.0175677
0.0295057
0.0230283
0.0370982
0.0341997
0.031617
0.0923066
0.03111
0.0604344
0.0402415
0.080326
0.0342262
0.0478551
0.054501
0.0604433
0.0620171
0.041514
0.0561403
0.0477768
0.0654469
0.0686437
0.0739137
0.0453758
0.0690292
0.0698936
0.0487258
0.0839988
0.0756545
0.0660626
0.0668272
0.0304827
0.0427949
0.044439
0.0398991
0.0267573
0.0379876
0.0542071
0.0396354
0.0298508
0.0648326
0.0543841
0.0651314
0.0406716
0.0687762
0.0293019
0.0336263
0.0375447
0.0357687
0.0467453
0.0201851
0.0663347
0.0858572
0.0966013
0.0261941
0.034342
0.0724408
0.0775254
0.0288461
0.0562922
0.0562299
0.0538949
0.0629244
0.0554009
0.0355237
0.0691317
0.0778664
0.0721178
0.0761761
0.0822858
0.0826911
0.0257718
0.0452197
0.0453602
0.0341984
0.0530123
0.0568429
0.0328778
0.021535
0.0270444
0.0729533
0.0268211
0.0281032
0.0153413
0.0283688
0.012504
0.0235821
0.0175276
0.0349575
0.0318494
0.0326246
0.0353386
0.0808812
0.0262698
0.0303625
0.0542635
0.0403376
0.0731866
0.0671654
0.094826
0.0716221
0.0304017
0.0384497
0.0363414
0.0273394
0.0148782
0.0256087
0.0845624
0.0801567
0.0395896
0.0468482
0.0423542
0.0492027
0.0519399
0.0755748
0.0336583
0.0854317
0.0682166
0.0750817
0.0727834
0.0599862
0.0679024
0.0473918
0.0638529
0.0373197
0.0602082
0.0530083
0.0394205
0.0497201
0.0467258
0.0444787
0.0352529
0.0339851
0.0565074
0.0584887
0.0797538
0.0296938
0.0538443
0.029687
0.0218002
0.0424582
0.0228621
0.0569688
0.0419141
0.0379475
0.0385361
0.034389
0.034186
0.0827444
0.0223712
0.0285452
0.0629119
0.0400091
0.0152611
0.0562768
0.0827174
0.0511787
0.0235583
0.0691952
0.0330628
0.0570683
0.0613247
0.072657
0.0496274
0.0293822
0.0674794
0.0567763
0.0635851
0.0593071
0.054993
0.0523965
0.0298883
0.0488609
0.0631023
0.031734
0.0433542
0.0827174
0.0356759
0.0446784
0.0469178
0.0408967
0.0144534
0.0220598
0.0383611
0.0273486
0.033223
0.0300903
0.0276312
0.0824658
0.0367804
0.0347978
0.0649711
0.0278517
0.0290101
0.0289726
0.0853473
0.0328352
0.0320781
0.0818324
0.0210638
0.0164187
0.0309386
0.0304769
0.0284384
0.0433936
0.0215502
0.0325042
0.05185
0.0757122
0.080606
0.0694839
0.0617791
0.0291034
0.0448683
0.0372704
0.0397354
0.0299654
0.0824084
0.0458662
0.0272242
0.0282294
0.0502854
0.0455012
0.0603223
0.0374698
0.0298552
0.0337729
0.0277368
0.0736065
0.0422201
0.0179527
0.0751474
0.0314494
0.0436375
0.0293791
0.0241042
0.0274882
0.0491151
0.0345775
0.0277331
0.0706225
0.0291888
0.0734859
0.0440397
0.0236546
0.0645582
0.0331958
0.0559497
0.0584701
0.0467475
0.0646721
0.0518015
0.0290462
0.0548793
0.0555289
0.022954
0.0412853
0.029144
0.0265762
0.0394415
0.0155953
0.0183161
0.0433853
0.0170314
0.0240884
0.0480444
0.0165196
0.0220192
0.0533357
0.0212382
0.0190274
0.0504739
0.0901542
0.0786021
0.0217279
0.0273379
0.0595883
0.0238439
0.0250718
0.0904371
0.0631776
0.0897089
0.043292
0.0739631
0.0330786
0.0416924
0.0482373
0.0689983
0.0294021
0.0648206
0.0937248
0.0303079
0.0287827
0.0341242
0.0280864
0.0234973
0.0272484
0.0375033
0.0323143
0.0906889
0.0485622
0.0355326
0.079015
0.0410568
0.0733049
0.0286108
0.0617501
0.03325
0.0411561
0.0858077
0.0297278
0.0513257
0.0267948
0.0282341
0.0542831
0.0268204
0.0905722
0.0626009
0.0778734
0.0428497
0.0425997
0.0874116
0.0305462
0.0274408
0.0731262
0.0312501
0.031948
0.0315739
0.0741736
0.0262703
0.0264944
0.02885
0.0964139
0.0274422
0.039836
0.0416212
0.0277093
0.0264954
0.0473237
0.0528084
0.0905908
0.0227287
0.0128006
0.029502
0.0248721
0.0264088
0.0971644
0.0441295
0.0424273
0.0294362
0.0508109
0.0614225
0.0398822
0.0689705
0.0700388
0.0243923
0.0402478
0.0264294
0.0667425
0.0639618
0.0238587
0.0498006
0.0445414
0.052033
0.0492329
0.0633918
0.0418208
0.0580317
0.0620242
0.0832093
0.05078
0.0815808
0.0227643
0.0573425
0.0297073
0.0268088
0.0684791
0.0864599
0.0653491
0.0235821
0.0877662
0.0436209
0.0382164
0.088994
0.0393019
0.080512
0.0259939
0.0986821
0.0615068
0.0238127
0.0783873
0.0584935
0.0565555
0.0517237
0.0909636
0.0879714
0.027243
0.0322604
0.0910483
0.0652857
0.0279433
0.097391
0.0968118
0.0320236
0.0431651
0.0335264
0.0784675
0.0441744
0.0448041
0.0182327
0.0851536
0.0685145
0.0233089
0.0894906
0.0833087
0.0210454
0.0329012
0.0284862
0.0615682
0.0727886
0.0391325
0.0264629
0.0834327
0.0648632
0.0445399
0.0918028
0.0417765
0.0330332
0.0543657
0.0512457
0.0861667
0.0272834
0.0227911
0.0776091
0.0436512
0.0331166
0.0432971
0.0251441
0.0597495
0.0556099
0.076579
0.082703
0.0958638
0.0277288
0.0585685
0.0276077
0.051048
0.0615346
0.0396413
0.0289317
0.0203837
0.0902643
0.0142903
0.0270651
0.0262452
0.0560306
0.0811868
0.0939551
0.0930443
0.0675085
0.042669
0.0586509
0.0232636
0.0278642
0.0308023
0.0137027
0.0255056
0.0340715
0.0776433
0.0802773
0.0354132
0.0284864
0.0472756
0.0701877
0.0336313
0.0594265
0.0445154
0.0532344
0.0386029
0.053488
0.0809655
0.0803585
0.0616885
0.02673
0.0639691
0.0865432
0.0304771
0.0319585
0.0520649
0.0775914
0.0612074
0.0241318
0.0279991
0.0427136
0.0523564
0.0586704
0.0179979
0.0207485
0.0324304
0.0320407
0.0263158
0.0822016
0.0554579
0.0887247
0.0599442
0.0629944
0.0680932
0.0446182
0.0261385
0.0841658
0.0275843
0.0449976
0.0441723
0.0518465
0.0391999
0.0628292
0.0416733
0.0613433
0.0757354
0.0319684
0.070469
0.0240584
0.0884082
0.0267919
0.0259459
0.0814705
0.0699791
0.0256522
0.0443554
0.0576732
0.0286419
0.0747971
0.0256543
0.0718143
0.0909168
0.0269237
0.0673329
0.0975734
0.0357563
0.0794494
0.0688709
0.0878675
0.0421471
0.0832993
0.0962829
0.0257522
0.0470194
0.0581742
0.0258292
0.0238376
0.0789927
0.0247841
0.0512384
0.095466
0.0738006
0.0687888
0.016142
0.0222152
0.0232281
0.051059
0.0240748
0.0242558
0.0409897
0.0426801
0.0307719
0.0223403
0.0244963
0.0399865
0.047394
0.0259018
0.0501601
0.0244102
0.0248664
0.0205815
0.0867947
0.0763829
0.0255737
0.0274321
0.0568497
0.0865854
0.0257996
0.0583232
0.0253531
0.0245434
0.0514446
0.0259016
0.0820718
0.0238925
0.0599736
0.0351752
0.0899675
0.0203766
0.087898
0.0920159
0.0239773
0.0967013
0.0283237
0.0255081
0.0414137
0.0679968
0.0273876
0.0324491
0.0316116
0.0327348
0.0318932
0.0516247
0.00333643
0.0459983
0.0842313
0.0812135
0.0667701
0.0261142
0.0955127
0.0022891
0.0233863
0.0550127
0.0240984
0.0249982
0.0954767
0.0192219
0.030313
0.0967953
0.0973895
0.025392
0.0148636
0.0321912
0.0641424
0.0255898
0.0713624
0.0948668
0.0213284
0.0837913
0.0262067
0.0228404
0.0238615
0.0183546
0.049884
0.0869789
0.0541103
0.0306404
0.0974568
0.0250254
0.024385
0.0234149
0.0836941
0.0350395
0.0239831
0.0396879
0.0948957
0.0305535
0.0657862
0.0255241
0.0387555
0.0296651
0.032599
0.0347137
0.0146401
0.0343589
0.0197598
0.0246664
0.088929
0.0327177
0.0429976
0.0258751
0.0448975
0.0426179
0.0891092
0.0148225
0.0408007
0.0743259
0.0413734
0.0255281
0.0376678
0.0197847
0.0022342
0.0417738
0.0381769
0.0431457
0.0316588
0.0860982
0.0802396
0.0238069
0.0311253
0.0936706
0.0896996
0.064703
0.0319723
0.00247182
0.0334033
0.0304474
0.0437308
0.0259342
0.0249957
0.0305086
0.0428176
0.0598239
0.0222099
0.0250272
0.0426448
0.0208833
0.058533
0.0500978
0.055254
0.00270824
0.0766076
0.0255237
0.0931322
0.0932964
0.0668594
0.0139795
0.0478649
0.0542176
0.0437342
0.003816
0.0202647
0.0261009
0.0801999
0.0877826
0.0652277
0.0913515
0.0188544
0.0225133
0.0318167
0.031156
0.031248
0.0289783
0.0246024
0.0674887
0.0741185
0.0881553
0.0939207
0.0767498
0.0658086
0.096498
0.0223904
0.04806
0.0920006
0.0359014
0.00297497
0.0176274
0.0523568
0.0231923
0.0524691
0.0246701
0.0423968
0.0565086
0.0200944
0.0422826
0.0427861
0.0258473
0.0581233
0.0255651
0.083264
0.0920557
0.0273744
0.0854661
0.0873043
0.0509403
0.00236448
0.08935
0.0366536
0.0262565
0.0944536
0.0189945
0.0773356
0.0156711
0.05037
0.0160376
0.0315308
0.0456898
0.0287749
0.00347181
0.0856309
0.018377
0.0410561
0.0309271
0.0879758
0.0668948
0.0361667
0.0860848
0.0407214
0.0614593
0.0247802
0.0435108
0.0905541
0.0124396
0.0414597
0.0212341
0.0244251
0.0600261
0.0327282
0.0671216
0.0608646
0.0408462
0.0913254
0.0230159
0.0329993
0.042913
0.0255467
0.0735651
0.0629408
0.00321488
0.0478694
0.0398381
0.0869029
0.0254129
0.052768
0.0241592
0.0251747
0.0449699
0.0213933
0.0605038
0.0938082
0.0895526
0.0449567
0.0674881
0.0646878
0.051718
0.0237929
0.0477386
0.0250509
0.0452204
0.0420823
0.0315806
0.0428782
0.0913714
0.0244617
0.0833483
0.00430662
0.0572133
0.0159194
0.00400447
0.0676116
0.0235226
0.0838002
0.026221
0.0238349
0.0245044
0.0882154
0.0304794
0.0229291
0.0269343
0.0746371
0.0321696
0.0382561
0.0419747
0.0539523
0.0399181
0.0263317
0.0694296
0.0310044
0.0293809
0.0805234
0.0204696
0.0525313
0.0279898
0.00360778
0.0495405
0.021905
0.0284854
0.0787165
0.0929778
0.0322694
0.0252452
0.0840949
0.0908875
0.0869395
0.0866289
0.0831573
0.0784331
0.0220527
0.0554962
0.0774202
0.0351674
0.0404258
0.0212839
0.0273008
0.035024
0.0246753
0.0542441
0.0831271
0.0152709
0.0189967
0.0227203
0.0235617
0.0341555
0.0399879
0.0260147
0.00235566
0.0777944
0.0405949
0.025211
0.0896729
0.0724307
0.041057
0.0302965
0.0558302
0.0321936
0.032599
0.0305681
0.0400948
0.0322508
0.0276474
0.0453338
0.0329043
0.0885665
0.0426292
0.048483
0.0762982
0.0304193
0.0478465
0.0373119
0.0392113
0.0299058
0.0322002
0.0601315
0.0340474
0.034102
0.0357203
0.00245159
0.0343462
0.0745344
0.091297
0.0051688
0.033498
0.088817
0.080184
0.0204871
0.0842815
0.023824
0.0529617
0.0953001
0.0237494
0.0316339
0.0884965
0.0248455
0.0307911
0.0248267
0.01906
0.074121
0.0239082
0.0832552
0.0106811
0.053011
0.0246484
0.0327508
0.0261454
0.0344921
0.0215129
0.072056
0.0867427
0.0794782
0.0650513
0.043648
0.032643
0.0882289
0.0341044
0.0883845
0.00831569
0.0444053
0.0433609
0.023423
0.0233552
0.0781652
0.0684164
0.029941
0.0247685
0.0305159
0.0399841
0.023571
0.035387
0.0454252
0.0602286
0.0400769
0.0367072
0.0320996
0.0240369
0.0804564
0.0363434
0.0361159
0.0465205
0.0450706
0.0504845
0.0378305
0.0296795
0.029336
0.00478336
0.0022871
0.0618335
0.0428672
0.0701828
0.023824
0.0261795
0.0449852
0.019372
0.0296622
0.0844039
0.0810939
0.0207075
0.0914078
0.0104935
0.0752967
0.0202734
0.0816895
0.0253691
0.0337498
0.052808
0.0507223
0.0650675
0.00680548
0.0970605
0.02271
0.0512214
0.0221382
0.0804059
0.0627084
0.0531825
0.0239507
0.033253
0.0721059
0.0316371
0.0404848
0.0418604
0.0742713
0.0242619
0.0549976
0.0195179
0.0818806
0.021342
0.017878
0.0382806
0.0386559
0.0843344
0.0605546
0.0308013
0.0390862
0.0482618
0.0228351
0.0536749
0.0388079
0.024094
0.0152189
0.0882222
0.0231836
0.0224262
0.00437498
0.00509113
0.0256998
0.0873827
0.077233
0.0287362
0.0660549
0.0872473
0.0254077
0.079965
0.0780465
0.084501
0.0417554
0.0848984
0.0229926
0.00465376
0.0231796
0.0509951
0.0371303
0.0224833
0.0867032
0.0234355
0.0445565
0.079727
0.0343283
0.0242245
0.088713
0.0792857
0.0399358
0.00263895
0.094623
0.0190467
0.030626
0.0407725
0.0336267
0.0289094
0.0203875
0.0568459
0.00519079
0.0337188
0.0623777
0.0801428
0.0243904
0.0231656
0.0233567
0.0243872
0.0412418
0.040332
0.0551007
0.0327849
0.0931454
0.0465334
0.0293346
0.0312753
0.0242942
0.0857962
0.0976067
0.023718
0.0428946
0.0795465
0.0474326
0.0606905
0.0930183
0.0208469
0.0276551
0.0369683
0.0185017
0.0298503
0.0557185
0.0838608
0.0233389
0.0235005
0.0194822
0.00523086
0.0623281
0.023609
0.0169282
0.0710342
0.0579212
0.0178006
0.0234912
0.0766994
0.0903122
0.0815138
0.0425483
0.0793154
0.0514786
0.0878785
0.00551799
0.0220911
0.0927901
0.0230641
0.013004
0.0257688
0.025478
0.0431916
0.0504063
0.0435923
0.0777888
0.0162586
0.0400819
0.0592819
0.0640636
0.0354812
0.0873857
0.00240937
0.0719244
0.0241839
0.00509596
0.0581732
0.0265002
0.028285
0.0510874
0.0955287
0.0165217
0.0743138
0.0740284
0.016917
0.0462514
0.0525
0.0233738
0.0241433
0.0236956
0.0335465
0.037156
0.0269697
0.00503813
0.0908829
0.0175052
0.0779173
0.005568
0.0881607
0.0563263
0.0027515
0.0628369
0.0240237
0.0639063
0.0516271
0.0228442
0.0283356
0.025123
0.0174031
0.0283524
0.0711595
0.0277226
0.00623087
0.019719
0.034384
0.0242328
0.025175
0.0230034
0.079926
0.00267089
0.0297103
0.0250991
0.0538209
0.0305125
0.0354689
0.0693023
0.0919773
0.0648779
0.0236128
0.0234619
0.0501713
0.0236001
0.0358286
0.0253395
0.0558018
0.0745242
0.0118663
0.00581262
0.0265886
0.0209323
0.061542
0.0583375
0.0456159
0.0519039
0.0445269
0.0290497
0.0863179
0.0879498
0.0443022
0.00625303
0.0311
0.0198117
0.0516808
0.0401523
0.0445427
0.0228805
0.0204819
0.0412357
0.0679559
0.0493592
0.0555167
0.0336969
0.0345495
0.0233298
0.0855733
0.0663646
0.0025208
0.0236441
0.0868662
0.0879644
0.033744
0.0156839
0.0907878
0.0529266
0.0168941
0.0227176
0.0514416
0.0358856
0.0254202
0.0581868
0.010417
0.0723054
0.0171558
0.0899577
0.0459286
0.0249939
0.0545578
0.0236592
0.034461
0.0343904
0.071221
0.025271
0.0236281
0.00533336
0.0276193
0.0235889
0.00433486
0.060828
0.0759762
0.0234993
0.0232288
0.0351326
0.00274139
0.0206083
0.0233984
0.0213965
0.0953466
0.0233848
0.0250961
0.0370645
0.0300077
0.00537184
0.0267378
0.00251128
0.0212763
0.0156489
0.0573258
0.0526986
0.0624093
0.0167512
0.0240211
0.0182418
0.0185412
0.0242997
0.00329758
0.0309545
0.0274085
0.0777391
0.0309031
0.0355051
0.0935931
0.0173923
0.0239391
0.0241088
0.0281776
0.0372676
0.0429052
0.0174889
0.059389
0.0481824
0.0849786
0.0822118
0.0100089
0.0323118
0.0820875
0.0247203
0.0228562
0.0102769
0.0694038
0.0302946
0.0217699
0.0422567
0.0499004
0.0228839
0.0232631
0.0568012
0.0376932
0.0226371
0.0237226
0.0216793
0.0408319
0.0710859
0.0226122
0.0741389
0.00464435
0.0198722
0.00576883
0.0345934
0.0937634
0.0715953
0.079775
0.0908033
0.0849654
0.0541598
0.0468215
0.0405462
0.0230907
0.0257723
0.0359944
0.0430389
0.048445
0.00503299
0.0238285
0.0190253
0.0224555
0.0218418
0.0224226
0.0229139
0.0553189
0.0326601
0.0191279
0.050944
0.0200371
0.0229018
0.0271051
0.0216862
0.0859818
0.0867053
0.0211759
0.0399084
0.0323163
0.0580191
0.0365786
0.018446
0.0196701
0.00996599
0.0224557
0.0518396
0.0879249
0.047357
0.0297366
0.0206502
0.0395946
0.0332519
0.0937562
0.0380054
0.0243714
0.0431982
0.0235958
0.0849711
0.0330357
0.0539266
0.0249331
0.0282428
0.0553571
0.0416754
0.0696011
0.0573628
0.031012
0.0211457
0.0235087
0.0290609
0.0786721
0.0165461
0.0593951
0.0610135
0.0222068
0.0754847
0.0450376
0.0620445
0.0526361
0.0702668
0.0158518
0.0265609
0.0667923
0.0865753
0.0274069
0.0149077
0.0545217
0.0225906
0.037759
0.039647
0.0110361
0.0877119
0.0134107
0.0327655
0.0385313
0.0764427
0.0715077
0.0206701
0.0322265
0.0447664
0.0337997
0.0236273
0.0237243
0.0146792
0.0299175
0.0265114
0.0237931
0.0904559
0.0540382
0.0751419
0.0780047
0.018965
0.0223653
0.0570453
0.0593025
0.0189344
0.0441293
0.0436485
0.0239606
0.069983
0.0687438
0.0831398
0.0138632
0.0205086
0.0218734
0.0117254
0.0464328
0.0458391
0.0201088
0.031516
0.0718844
0.022876
0.0162773
0.030954
0.0766577
0.0183976
0.037326
0.0317406
0.0444282
0.0293042
0.0826254
0.081367
0.0809689
0.0503751
0.0237115
0.053967
0.0236847
0.0700335
0.0919201
0.0442058
0.041386
0.0100289
0.0775823
0.0150673
0.0450358
0.0371406
0.0678393
0.0230985
0.0486042
0.0148345
0.024255
0.0223333
0.0924886
0.053973
0.0390069
0.087252
0.0354596
0.0575641
0.0188322
0.0567373
0.0239195
0.0413438
0.00234522
0.0603322
0.020384
0.0238255
0.0766921
0.0148374
0.067265
0.0176301
0.0614313
0.0255231
0.0498296
0.0203538
0.0689476
0.048028
0.0892631
0.0753686
0.0262949
0.0165912
0.0147605
0.0414517
0.0655996
0.0532204
0.0601999
0.0457869
0.0614239
0.0723808
0.0231991
0.0777359
0.0738029
0.0341426
0.0755618
0.0698652
0.02117
0.034348
0.025072
0.0804853
0.0250739
0.0242616
0.0237508
0.0905958
0.0908577
0.0426698
0.0490244
0.0546409
0.0213369
0.0460696
0.0243627
0.0351295
0.0244491
0.0528622
0.0513849
0.0458006
0.0208681
0.0827784
0.00459775
0.0195561
0.0330856
0.070293
0.0473306
0.0707472
0.0211171
0.0235789
0.0246161
0.0886115
0.0257356
0.0226354
0.0595133
0.079638
0.0190913
0.0363114
0.0600075
0.00715888
0.0661671
0.0900385
0.00223677
0.0205116
0.0517639
0.0756918
0.0597573
0.0269038
0.0358532
0.0469094
0.0236755
0.0240191
0.0208015
0.0233365
0.0634075
0.0758486
0.0288439
0.0875982
0.0706043
0.0247929
0.0214965
0.0301194
0.0724742
0.0585401
0.0496561
0.039299
0.0850333
0.0505459
0.034524
0.0388474
0.0367853
0.0838687
0.0388127
0.0522273
0.0423395
0.0356378
0.0297311
0.0317178
0.0174961
0.01583
0.0454617
0.0583881
0.0311649
0.0481563
0.0436936
0.0240587
0.0755118
0.0341556
0.045164
0.0213022
0.0904156
0.0293642
0.0205104
0.0290362
0.0194755
0.0281042
0.0261791
0.0237678
0.0232573
0.0300873
0.0493546
0.0751917
0.0306886
0.0844463
0.0285398
0.0369163
0.0567802
0.0563058
0.0304501
0.0869716
0.0345204
0.0534003
0.0288452
0.0632802
0.0259953
0.00240811
0.09193
0.0287581
0.0527683
0.0497151
0.0346421
0.0235337
0.023692
0.0322272
0.0211238
0.0246746
0.029923
0.0254393
0.0476261
0.0242037
0.0232835
0.026676
0.0138103
0.0681788
0.00443645
0.0552796
0.0487767
0.0898874
0.0254839
0.0241498
0.0292055
0.0249945
0.0249754
0.0605639
0.0273189
0.0332297
0.0650512
0.0331806
0.0233541
0.00214489
0.0751529
0.0249595
0.00434236
0.0175909
0.0609733
0.0177656
0.0188769
0.0272562
0.0713024
0.024662
0.0236094
0.0197768
0.0354258
0.0173768
0.0875185
0.0394655
0.0267809
0.0336124
0.0715239
0.0195798
0.0238776
0.0752022
0.0850311
0.0558987
0.0150678
0.0342879
0.0345751
0.0485967
0.0369921
0.0822504
0.076509
0.0400512
0.0338988
0.016805
0.0204077
0.0383079
0.020401
0.083839
0.0111211
0.022236
0.0336117
0.0693799
0.0361472
0.0762398
0.0515154
0.0590248
0.034676
0.0186403
0.0604094
0.0811447
0.0239564
0.0177602
0.0287768
0.0186896
0.0248028
0.0623641
0.0402713
0.0438076
0.0775533
0.0782855
0.0397765
0.0774301
0.018481
0.0205554
0.0251557
0.0667265
0.0139465
0.0128659
0.015732
0.0424388
0.0317818
0.0167778
0.0705875
0.0795597
0.0700555
0.0220097
0.0501259
0.0871453
0.0361072
0.0261186
0.029219
0.0245611
0.0772646
0.0179507
0.0396979
0.0294598
0.0450259
0.0233607
0.0288504
0.0399099
0.00624899
0.00551015
0.029834
0.0439196
0.0157882
0.0244076
0.0461562
0.0434698
0.0232875
0.0739113
0.049561
0.0241151
0.0258311
0.0275316
0.0384808
0.0184552
0.0234775
0.0713051
0.0452175
0.0226864
0.0733781
0.0735853
0.0578381
0.0374294
0.0177562
0.0221079
0.0357085
0.074643
0.0423401
0.0984271
0.0846797
0.0820619
0.0233552
0.0235214
0.0300922
0.021295
0.0218404
0.0182029
0.0698025
0.0241746
0.0247168
0.0240731
0.015765
0.0634189
0.0123388
0.0356657
0.0147543
0.0137868
0.014689
0.0102174
0.0628468
0.0350353
0.0243639
0.0748616
0.0319612
0.0290478
0.0735102
0.0313198
0.0236387
0.0731222
0.0206329
0.0343942
0.0215171
0.0274157
0.0304399
0.0410305
0.080273
0.023726
0.0668412
0.0375963
0.0463688
0.028828
0.0822835
0.0850513
0.0243247
0.0198265
0.0295456
0.010376
0.0361249
0.0675962
0.0844145
0.0483346
0.0148119
0.0848311
0.0176576
0.0293457
0.0547259
0.0518588
0.0864466
0.0752443
0.0333663
0.0801175
0.0136641
0.0253433
0.0197467
0.0419656
0.0192717
0.0801162
0.0172443
0.0227927
0.0206609
0.0121635
0.0128887
0.0202443
0.0379244
0.0574042
0.0399156
0.0643589
0.0542871
0.0398099
0.019087
0.0209726
0.0368049
0.0294872
0.0239342
0.0236658
0.024511
0.0126433
0.0235221
0.0185154
0.0231829
0.0313903
0.0234058
0.0160729
0.0411504
0.0362722
0.0767696
0.0866618
0.038504
0.0239941
0.0353882
0.0352607
0.068447
0.0286129
0.028318
0.0317188
0.0263261
0.0798372
0.0292575
0.0236537
0.0235444
0.0204859
0.02977
0.0356026
0.073983
0.0773347
0.0138209
0.0301479
0.0737063
0.0360294
0.0710851
0.079507
0.0383891
0.0732212
0.0724905
0.0670716
0.0418266
0.018857
0.0121929
0.0126705
0.0407909
0.0680003
0.0236625
0.0530862
0.0724138
0.0664399
0.0123289
0.0243775
0.0329212
0.0167318
0.0237082
0.0706212
0.0257049
0.0274168
0.0706222
0.0128371
0.0808457
0.0739864
0.0292602
0.0164227
0.0296141
0.056592
0.0720976
0.0117601
0.0115478
0.0140249
0.0884024
0.121899
0.136191
0.140956
0.140074
0.135304
0.12803
0.119268
0.109756
0.100061
0.090554
0.0814915
0.0730357
0.0652724
0.0582298
0.0518974
0.0462393
0.0412054
0.0367384
0.0327838
0.0876982
0.120943
0.135256
0.140108
0.139362
0.134738
0.12761
0.118981
0.109586
0.0999762
0.0905363
0.0815226
0.0730995
0.0653557
0.0583233
0.0519947
0.0463364
0.0413002
0.0368304
0.0328726
0.0869625
0.119971
0.134288
0.139236
0.138625
0.134152
0.127173
0.118681
0.109406
0.0998885
0.0905195
0.0815571
0.0731686
0.0654459
0.0584246
0.0521001
0.0464418
0.0414034
0.0369297
0.0329672
0.0861983
0.118974
0.133289