/*--------------------------------*- C++ -*----------------------------------*\
  =========                 |
  \\      /  F ield         | OpenFOAM: The Open Source CFD Toolbox
   \\    /   O peration     | Website:  https://openfoam.org
    \\  /    A nd           | Version:  10
     \\/     M anipulation  |
\*---------------------------------------------------------------------------*/
FoamFile
{
    format      ascii;
    class       volScalarField;
    location    "1150";
    object      nut;
}
// * * * * * * * * * * * * * * * * * * * * * * * * * * * * * * * * * * * * * //

dimensions      [0 2 -1 0 0 0 0];

internalField   nonuniform List<scalar> 
23845
(
0.0136129
0.0138596
0.00773016
0.0140785
0.0181558
0.0220918
0.00798846
0.00991728
0.0194743
0.0140971
0.0221354
0.022923
0.0189918
0.0206103
0.00610798
0.0157983
0.0210937
0.0233482
0.0177714
0.0224262
0.0119511
0.0229204
0.0128957
0.0192326
0.0165174
0.0178915
0.0098136
0.0220188
0.0034734
0.0221015
0.0148044
0.00126656
0.0049765
0.0227576
0.0229511
0.0230062
0.00109714
0.0229286
0.0226114
0.0198866
0.0173319
0.0223378
0.018461
0.0230201
0.0177383
0.0199416
0.0193395
0.0162784
0.00221832
0.00194483
0.00565829
0.0100196
0.00126919
0.0212823
0.00122567
0.0199649
0.0144968
0.010964
0.0123393
0.0138745
0.0062747
0.0227558
0.016528
0.0043012
0.0186907
0.0195268
0.00965952
0.0179607
0.017719
0.0176467
0.00827228
0.00815977
0.0179781
0.00663162
0.0181534
0.00634459
0.0228677
0.0226596
0.0130872
0.0206649
0.0109802
0.00745136
0.0141587
0.0113148
0.00645299
0.0229507
0.00854873
0.0011727
0.0187507
0.0194322
0.00465125
0.0171395
0.00374697
0.0228305
0.0105648
0.00546175
0.0204583
0.0161157
0.0182102
0.0193811
0.0199766
0.00926224
0.0169527
0.000827541
0.00295021
0.0119494
0.0218842
0.0179278
0.0108768
0.0226701
0.0222408
0.0228765
0.00643454
0.0152193
0.0229705
0.0131106
0.0181835
0.014976
0.00366192
0.00713813
0.0227356
0.0025295
0.0177434
0.00843856
0.0089988
0.0179546
0.00690943
0.00194205
0.00675412
0.0178909
0.0047801
0.0195076
0.022238
0.0213369
0.0199908
0.0154753
0.000727158
0.0229153
0.0109517
0.0225515
0.0022834
0.0225007
0.0227559
0.0232103
0.0168188
0.0229179
0.0139948
0.00700919
0.00570183
0.0185453
0.00546816
0.0185923
0.0103342
0.0198544
0.00631729
0.0200429
0.0181538
0.0228881
0.00438771
0.00513222
0.017519
0.00623308
0.0100303
0.0189235
0.017576
0.0199343
0.0219116
0.00294979
0.0221846
0.0230263
0.0217105
0.0134966
0.0190864
0.00950876
0.0188571
0.0121779
0.0168969
0.0199065
0.017973
0.0228485
0.0198115
0.0201911
0.00693057
0.022784
0.016274
0.0188825
0.0223931
0.0107572
0.00289647
0.0220739
0.00381558
0.0206417
0.0204945
0.0215929
0.0170764
0.0200989
0.00195693
0.0029311
0.000749537
0.0214245
0.0213532
0.0202928
0.00638419
0.0209456
0.0108619
0.0101799
0.00739098
0.0222189
0.0116247
0.0230993
0.0218033
0.0028249
0.0163847
0.0218605
0.00329964
0.00121252
0.0220619
0.02265
0.000550135
0.00545772
0.0179454
0.00648047
0.00183488
0.0186419
0.0231754
0.00565165
0.000743205
0.0206599
0.022165
0.0173592
0.0226483
0.00289144
0.0228675
0.0178178
0.0186479
0.0050301
0.0185177
0.0147782
0.0187888
0.0123745
0.00158549
0.0144338
0.0119237
0.0194092
0.00307547
0.0164331
0.0217158
0.0179187
0.0113133
0.00641442
0.020509
0.0229345
0.00567377
0.0181384
0.00690515
0.00477882
0.00713813
0.00717587
0.0228554
0.0194462
0.000836266
0.0229457
0.00749803
0.0218465
0.0214238
0.0192935
0.0128557
0.00706159
0.0156321
0.0144653
0.02272
0.0132106
0.00509506
0.0207897
0.0230922
0.0203116
0.00691286
0.0208122
0.00191704
0.0133
0.0116954
0.0220893
0.00730872
0.0177195
0.0229592
0.00580253
0.0105114
0.019899
0.0103563
0.00663559
0.012292
0.00371878
0.00484608
0.00684751
0.0113511
0.0229328
0.00508273
0.0213648
0.0229542
0.0039912
0.00411932
0.00583933
0.00490474
0.0147937
0.0212552
0.0150638
0.00388907
0.00528264
0.0198525
0.00184702
0.00481946
0.0115259
0.0186764
0.0217564
0.0109133
0.00218215
0.00518447
0.0219419
0.00449235
0.0179443
0.00274041
0.00290742
0.00462432
0.0218897
0.0065206
0.0223183
0.0139365
0.0174121
0.00724726
0.0235384
0.00816271
0.0189051
0.00540575
0.0229919
0.00657601
0.0143565
0.0126779
0.0235609
0.0226834
0.0132881
0.0127177
0.00510497
0.0226223
0.017807
0.0176925
0.00143248
0.0229914
0.00611568
0.013558
0.00552155
0.0134552
0.00472039
0.00183015
0.00662022
0.00127596
0.0205405
0.0232552
0.0184227
0.00678016
0.0116434
0.0074537
0.0185978
0.0142008
0.0179617
0.00323644
0.0217419
0.00703042
0.0226867
0.00380353
0.0179291
0.0228747
0.00407653
0.00305342
0.0229284
0.0228291
0.00529955
0.0103222
0.0137447
0.0227026
0.0121275
0.00689362
0.0229324
0.0127875
0.0177525
0.0178333
0.0227939
0.0224756
0.0128877
0.0224397
0.0115461
0.00912669
0.0230491
0.00357281
0.0028274
0.0043375
0.00424996
0.0223322
0.0177125
0.0176231
0.0229985
0.0119662
0.0159053
0.00907382
0.0118061
0.0135048
0.00675099
0.0223133
0.00335889
0.00308414
0.00788743
0.00594099
0.0178596
0.00763427
0.00602832
0.0171623
0.0102937
0.0160051
0.0233804
0.0225107
0.013487
0.00364626
0.0226468
0.0197563
0.0136269
0.00818137
0.01264
0.00347661
0.0147058
0.00948203
0.00844573
0.0203633
0.0230412
0.00472656
0.0238806
0.0209068
0.0179833
0.0229433
0.018912
0.00455165
0.0107393
0.00641023
0.00317605
0.00279496
0.00645334
0.015233
0.00465267
0.0221163
0.0173628
0.0225768
0.0124994
0.0132032
0.0187814
0.00299177
0.0229786
0.0179069
0.00526872
0.01461
0.0205741
0.00822574
0.0208724
0.0105642
0.0144722
0.000738884
0.0160273
0.0225475
0.0225001
0.021788
0.00314604
0.017816
0.00531432
0.0219951
0.0220604
0.0158386
0.00754049
0.00431473
0.0194132
0.0185782
0.00331174
0.0215489
0.0185548
0.0185603
0.0172262
0.0152854
0.0231838
0.022967
0.00740338
0.0228072
0.0228892
0.00857079
0.0068687
0.0180491
0.00447567
0.00583045
0.0179241
0.0103929
0.0191975
0.0180204
0.00973252
0.0184053
0.0229265
0.00923928
0.00249434
0.00556391
0.0191497
0.0118991
0.0126116
0.0224046
0.0180922
0.022465
0.00617008
0.0152903
0.00467937
0.00113838
0.0155906
0.0210139
0.017782
0.016707
0.00494723
0.00552337
0.0222879
0.000795003
0.0207238
0.0232794
0.00422785
0.0176494
0.00786094
0.00676083
0.00487646
0.0120236
0.00403047
0.00523145
0.00392233
0.0213364
0.0138045
0.0188012
0.0180785
0.0213804
0.00585707
0.020509
0.0131899
0.00688789
0.0205793
0.0135671
0.0132602
0.0171224
0.0131902
0.0232905
0.0187321
0.021818
0.0192808
0.0198113
0.0229555
0.00841144
0.0198661
0.0107368
0.0111405
0.0229249
0.00506369
0.0229999
0.0224107
0.0111866
0.0138613
0.014972
0.0223865
0.0228968
0.00273424
0.00337561
0.0180395
0.004258
0.0181329
0.0176663
0.00790789
0.0188521
0.0219817
0.015373
0.0203022
0.00795826
0.00487791
0.00791444
0.0202326
0.0175841
0.0228746
0.0170488
0.00738508
0.0045294
0.0234065
0.0179505
0.018001
0.00800656
0.0181357
0.0139489
0.00562415
0.0129603
0.0232108
0.006723
0.0233485
0.0176231
0.0207654
0.0233751
0.0228415
0.00936477
0.0213653
0.0214817
0.00679609
0.011638
0.0181468
0.00745776
0.0208159
0.0075171
0.0199709
0.0187388
0.0174142
0.0139546
0.0206093
0.00408312
0.0146191
0.0224279
0.0182805
0.0220495
0.0210259
0.0211781
0.00635142
0.020167
0.0207752
0.0165697
0.0239008
0.0174009
0.023597
0.0175856
0.0156037
0.0189337
0.0196111
0.0174802
0.0221977
0.0229317
0.00617693
0.0157672
0.0152023
0.0175774
0.0231057
0.0166454
0.022698
0.0225553
0.0181148
0.0139033
0.0203658
0.0122484
0.0181086
0.0183896
0.00634346
0.0230624
0.0229743
0.0226822
0.0125637
0.00533764
0.00433324
0.0043701
0.0167832
0.00793249
0.0221576
0.0220261
0.0185579
0.0219931
0.0171482
0.0210263
0.0175529
0.0176004
0.020138
0.0161654
0.0202014
0.0159275
0.0239045
0.0210251
0.023963
0.0239736
0.0234073
0.0239867
0.0228903
0.0206877
0.0211324
0.0209436
0.0239597
0.0220756
0.0238854
0.0211856
0.0198795
0.0200306
0.0238821
0.0217337
0.0186425
0.0237291
0.0217552
0.0240385
0.024053
0.0239428
0.0238387
0.0236416
0.024038
0.0232465
0.0240292
0.0204678
0.0239694
0.0203805
0.0239501
0.0227854
0.0220411
0.0239036
0.0236393
0.0237496
0.0179003
0.021157
0.0161165
0.0187624
0.0212424
0.0211426
0.0237056
0.0220429
0.022193
0.0236446
0.0238205
0.0237853
0.0238592
0.023572
0.021265
0.0229457
0.0169674
0.0176523
0.0224637
0.0189363
0.0237198
0.0235312
0.0233909
0.0227194
0.02127
0.023135
0.0227915
0.0219446
0.0234861
0.0202035
0.021453
0.0177295
0.0234247
0.0213872
0.00874171
0.0181151
0.0234774
0.022924
0.0234239
0.0218046
0.0223669
0.00757925
0.0219398
0.0177254
0.0200806
0.0211253
0.00768193
0.0197704
0.0199797
0.0237205
0.0238886
0.0231788
0.0222977
0.0240642
0.0232153
0.023141
0.0240692
0.018457
0.0239159
0.0152777
0.0237986
0.0233775
0.0237956
0.0238506
0.022505
0.0133496
0.0201101
0.0221132
0.0192383
0.0199726
0.0221786
0.0237399
0.0239309
0.00487907
0.0202876
0.0213445
0.023339
0.0190353
0.0233451
0.0233112
0.0233409
0.0236227
0.0208924
0.0220558
0.0223151
0.0234624
0.0212513
0.0169552
0.0235402
0.0219374
0.0234312
0.0234234
0.0205204
0.0227407
0.021241
0.0213591
0.0211204
0.0221121
0.0217705
0.0213522
0.0219697
0.0165007
0.0184473
0.0235811
0.019706
0.0232913
0.02382
0.00436241
0.0214731
0.017406
0.0169155
0.0176768
0.0176268
0.0165027
0.0175862
0.0175507
0.017799
0.0174249
0.0176926
0.0175779
0.0177047
0.0176549
0.0177938
0.0175025
0.0173761
0.0175947
0.017593
0.0161256
0.0233374
0.0234803
0.00886909
0.0234581
0.0176319
0.0191086
0.0226607
0.018569
0.0239785
0.0213492
0.0240621
0.0221204
0.0172997
0.0173922
0.0171259
0.0163988
0.0239651
0.0219748
0.0223623
0.0192134
0.0173944
0.0229313
0.00700545
0.0229394
0.0172102
0.0220457
0.0224712
0.0233367
0.0199607
0.016679
0.0171575
0.015013
0.0156911
0.0170963
0.0146339
0.0175638
0.0174451
0.017578
0.0175049
0.0175255
0.0175509
0.0187285
0.0235718
0.0233839
0.0179945
0.0221626
0.0188093
0.0171248
0.0237479
0.0170417
0.014825
0.0171377
0.0174986
0.0165971
0.0175779
0.0154892
0.0174268
0.0175464
0.0143992
0.0174337
0.01756
0.0238122
0.0212977
0.0228736
0.0165792
0.0237382
0.0219548
0.0239293
0.0209121
0.0237928
0.0233607
0.0216055
0.00358191
0.0229878
0.0239456
0.0237958
0.0238692
0.0211173
0.0237586
0.0229625
0.0169527
0.0236728
0.0233806
0.00542304
0.0025583
0.0236178
0.0235272
0.0209611
0.0165411
0.0217241
0.00595848
0.0232051
0.0177086
0.0180809
0.0175319
0.0221782
0.0234389
0.0197226
0.0201993
0.0231926
0.0128115
0.0175057
0.0228201
0.0231221
0.017724
0.0237293
0.0234405
0.0236141
0.0198365
0.0176703
0.023717
0.0237779
0.0238365
0.0235528
0.0235618
0.0217878
0.0233937
0.0198318
0.0214003
0.0217118
0.0235305
0.0170324
0.0232815
0.0236734
0.021136
0.0235335
0.0230216
0.0235025
0.0187957
0.023386
0.0233012
0.0230129
0.0195989
0.022081
0.022022
0.0130783
0.0232905
0.020066
0.0233352
0.0234082
0.0209426
0.0181754
0.0237238
0.0212398
0.0154998
0.0200898
0.0232997
0.0234443
0.0232462
0.0232122
0.0158258
0.0231726
0.0230611
0.0226248
0.0160343
0.0186834
0.023162
0.0229775
0.0222179
0.0187863
0.0216308
0.020508
0.0190586
0.0219821
0.0224404
0.0232889
0.0196274
0.0185943
0.0202036
0.00172601
0.0204779
0.00478349
0.0195485
0.0217223
0.0019657
0.0231908
0.0178312
0.0228456
0.0175135
0.0226845
0.0234013
0.0221109
0.0213209
0.022704
0.00580583
0.0233496
0.0233913
0.0186075
0.019403
0.0184448
0.0160041
0.0233593
0.0232511
0.0220157
0.0233713
0.0214128
0.0177898
0.0215131
0.0199367
0.0222394
0.016162
0.0152033
0.0158023
0.0149067
0.0145584
0.0236097
0.0234355
0.0218836
0.0192221
0.0193157
0.0238107
0.0190353
0.0238788
0.022202
0.0240257
0.0235708
0.0240473
0.0240289
0.0237176
0.023923
0.0239341
0.0237781
0.0235254
0.0223085
0.0235425
0.0137926
0.0229905
0.0232377
0.0142158
0.0231458
0.0187317
0.0230175
0.0229009
0.0237308
0.023526
0.0221248
0.0233153
0.0191069
0.020553
0.0210048
0.0181672
0.0231045
0.0142016
0.0221482
0.0178597
0.0240528
0.0225114
0.0196607
0.00441314
0.00849397
0.0207677
0.0189198
0.0185767
0.0234935
0.0227055
0.0232346
0.0237291
0.0197882
0.0238558
0.0239897
0.0238869
0.0238096
0.00264939
0.023875
0.0169724
0.0232551
0.0237733
0.0179232
0.0185495
0.0210049
0.00438676
0.0235582
0.0177503
0.0181627
0.0235346
0.0227766
0.0234226
0.0231665
0.0207814
0.022445
0.0234877
0.0234237
0.0127865
0.0231843
0.0232173
0.0228996
0.0142682
0.019887
0.0221154
0.02214
0.0179419
0.0182836
0.0233432
0.0196575
0.0181104
0.00929713
0.0179509
0.0231726
0.0186282
0.0227946
0.0222574
0.0232717
0.0235792
0.0215585
0.0233545
0.0232009
0.0229696
0.0226472
0.0224225
0.022735
0.0215023
0.0231916
0.023713
0.0220287
0.0125915
0.0106477
0.0223379
0.021766
0.0214334
0.0198789
0.0209974
0.0175066
0.0221693
0.0233818
0.0142447
0.0228821
0.0222803
0.0232071
0.0203726
0.0222829
0.0179125
0.0213903
0.0225099
0.0187439
0.0218248
0.0192393
0.0223582
0.022132
0.0202547
0.0209287
0.0200742
0.0200228
0.0222589
0.0231107
0.022092
0.0239725
0.0175782
0.0237661
0.0180166
0.0174802
0.016202
0.0177894
0.0176999
0.0156677
0.0177164
0.01747
0.0150407
0.0177843
0.0175657
0.0143556
0.0176039
0.0176775
0.0147376
0.0210769
0.0185261
0.0196613
0.0205166
0.0150511
0.0224173
0.0230822
0.0200474
0.0172872
0.019725
0.0210725
0.0152685
0.0218332
0.023083
0.0157132
0.0236386
0.0220932
0.0238312
0.0185173
0.00241228
0.021959
0.0232645
0.023117
0.022889
0.0231368
0.0234468
0.0234195
0.00566577
0.023841
0.0234012
0.0230223
0.0199136
0.0235163
0.0232024
0.0124941
0.0201342
0.0198437
0.0174946
0.0189785
0.0232854
0.0231058
0.0201866
0.00498641
0.0231576
0.0157445
0.0220746
0.0227057
0.0102184
0.0136722
0.0215706
0.0211407
0.0199028
0.0184503
0.0211906
0.0212195
0.0211729
0.0130227
0.0224044
0.0205722
0.0190018
0.0188456
0.0180724
0.0197195
0.0235692
0.0228925
0.00379429
0.0201318
0.0201655
0.0171029
0.0229403
0.000917736
0.0204846
0.00460386
0.0230918
0.017772
0.021088
0.0213804
0.0227139
0.0209957
0.0218142
0.0209627
0.0214216
0.0185835
0.0179895
0.0208648
0.0230445
0.0184452
0.0183865
0.0218259
0.0213352
0.0219684
0.0209965
0.0185309
0.0219665
0.0238269
0.0198459
0.0210251
0.0151628
0.0225209
0.018314
0.0209928
0.0240671
0.0230062
0.0198097
0.00655198
0.017481
0.0172387
0.0215003
0.0193529
0.0219149
0.0206902
0.0173322
0.020806
0.0126376
0.00594496
0.0186541
0.0217203
0.0219953
0.00522246
0.0211992
0.0208984
0.0206061
0.0185175
0.0151467
0.022857
0.0217764
0.00523778
0.0115605
0.0211655
0.0184928
0.0173531
0.0203636
0.00510602
0.0226831
0.0136004
0.0226393
0.015367
0.0186382
0.0181581
0.0114451
0.0228913
0.00591368
0.0144758
0.0200228
0.00804664
0.020159
0.0155979
0.0141087
0.0124478
0.0216825
0.0197459
0.0119529
0.0230424
0.016848
0.0217848
0.023371
0.022339
0.0201723
0.0168419
0.0230719
0.01926
0.0209245
0.0195245
0.0222455
0.0232907
0.0200166
0.0231841
0.0217469
0.0154863
0.0097807
0.0184257
0.023049
0.0220661
0.022299
0.021408
0.022273
0.0227036
0.00716285
0.018512
0.01688
0.00100646
0.0208838
0.0210861
0.0197132
0.0207491
0.0171442
0.0151703
0.0232006
0.0237205
0.023893
0.0207371
0.0225331
0.0211329
0.0176966
0.0230491
0.0226748
0.0151517
0.00460937
0.0197129
0.0193254
0.0204207
0.011156
0.0220458
0.020678
0.022475
0.0227596
0.0230874
0.0218513
0.0215131
0.0204549
0.0225936
0.0229159
0.0227386
0.00829944
0.00737089
0.0232861
0.0217059
0.0202497
0.0222416
0.019377
0.0231479
0.0218593
0.0197491
0.0222948
0.00236164
0.0191431
0.00701934
0.0227818
0.0230946
0.0104823
0.0212748
0.0210317
0.0221749
0.0200543
0.0199288
0.0184472
0.0207561
0.0170347
0.0228465
0.0226794
0.0232717
0.0213202
0.012492
0.0224945
0.0196416
0.0234307
0.0170577
0.00811134
0.0222734
0.0195622
0.0138884
0.0231019
0.0227687
0.022273
0.0177688
0.00565536
0.00381352
0.0235982
0.0229224
0.020051
0.0209234
0.0159606
0.0193006
0.0230021
0.0214269
0.0170805
0.0199104
0.0136181
0.022286
0.0208961
0.0198427
0.0132872
0.0192996
0.0205844
0.0203624
0.0071037
0.0204681
0.0200213
0.0152316
0.0229442
0.0185578
0.0199012
0.0164469
0.00502008
0.0179726
0.0206475
0.0214029
0.0043879
0.0198193
0.0174577
0.0191426
0.01114
0.0219882
0.0180012
0.0201489
0.0110518
0.0156045
0.0230857
0.0200215
0.0230021
0.0227855
0.0184552
0.00903679
0.0222755
0.0230748
0.0230174
0.0139848
0.0211416
0.0180692
0.0185226
0.0230649
0.0228475
0.00731527
0.020088
0.0217927
0.0229735
0.018453
0.0103756
0.005112
0.0026927
0.00703859
0.0115367
0.0203006
0.0182587
0.0227668
0.0209833
0.0229872
0.0179729
0.0230905
0.00691103
0.00392837
0.0228958
0.0230629
0.0153614
2.0459e-05
0.0151866
0.00824332
0.0216683
0.0131397
0.0230587
0.0194168
1.67588e-05
0.0228036
0.0143322
0.0223184
0.0225072
0.0156421
0.00322043
0.00795473
0.0137753
0.0152225
0.0179068
0.00182565
0.0211041
0.0137012
0.022761
0.0113852
0.0194465
0.0187576
0.0187972
0.0223865
0.0192932
0.0221466
0.0027119
0.015004
0.00649536
0.00757728
0.0228903
0.0144575
0.0222081
0.0215235
0.0229277
0.019199
0.00987558
0.0221065
0.0199173
0.0130237
0.00573183
0.0233234
0.0214164
0.0122036
0.021348
0.0232772
0.0200112
0.0177521
0.0202087
0.0194242
0.0230088
0.00622493
0.0226047
0.0225362
0.0230256
0.0160259
0.0134756
0.020653
0.0179909
0.012713
0.0157314
0.0159397
0.0211734
0.00387728
0.017475
1.6442e-05
0.0122689
0.0114064
0.0221856
0.0231592
0.010903
0.0117791
0.0201361
0.0224357
0.0144334
0.0172739
0.0176395
0.0169828
1.7704e-05
0.0227203
0.00715081
0.0225635
0.00486257
0.0230094
0.022405
0.0232832
0.0227409
0.00402638
0.022236
0.0138116
0.0027622
0.0233373
0.0174481
0.0138201
2.17293e-05
0.0199218
0.021937
0.0202476
0.0193357
0.0115899
0.0176598
0.013224
0.0139196
0.0140817
3.18816e-05
0.0191515
0.0220008
0.0179957
0.00641752
0.0231303
0.0125884
0.0190827
0.0188051
0.0183803
0.0231953
0.00674077
0.0207741
0.0223459
0.0168992
0.018117
0.010381
0.0132428
0.00533563
0.00785998
0.0158308
0.00217403
0.0148728
0.0207872
0.0176084
2.421e-05
0.017974
0.0128913
0.0228024
0.00411756
0.00502505
0.0235416
0.0233108
0.0176479
0.0220997
0.0231306
0.0221171
0.0237663
0.0222546
0.0121647
0.0188465
0.0190116
0.0216864
0.0216599
0.0146538
1.53929e-05
0.00488741
0.0111389
0.0056201
0.0125624
0.00304446
0.0224899
0.0179228
0.00377504
0.0175755
0.00626933
0.0153586
0.0173079
2.82908e-05
0.0221127
0.0189011
0.013104
0.023015
0.00959202
0.013035
0.0166428
0.00683007
0.0228156
0.0125441
0.0174503
0.0231801
0.0125884
0.000804928
0.0185555
0.0180933
0.01787
0.0221449
0.0227108
0.00511004
0.023255
0.0184695
0.0119456
0.0228939
0.00920945
0.016455
0.0221094
0.0177324
0.00569195
2.62751e-05
0.00907436
0.0103955
0.0114863
0.0215711
0.0157222
0.0226284
0.0224605
0.0144499
0.0201214
0.00693711
0.0126896
0.0115159
0.0114138
0.0222671
0.0130789
0.0228926
0.0188322
0.0227783
0.0188324
0.0136835
0.0230617
0.0201368
0.0180707
0.00602208
0.0227613
0.00756124
3.73569e-05
0.0234566
0.00198131
3.42099e-05
0.0122534
0.0229624
0.00449537
0.0180562
0.022142
0.022946
0.00526986
0.0227582
0.0204124
0.0216581
0.0141048
0.021089
0.0118565
0.0217315
0.0233945
0.0169177
0.0218883
0.0166645
0.020267
0.0178069
0.0190524
0.0194367
0.0234878
0.019042
2.88162e-05
0.0164487
0.0199466
0.00339397
0.01673
0.0121395
0.02213
0.0218784
0.00729678
0.0114987
0.00838432
0.0116463
0.00887333
0.0102591
0.0197905
0.0118299
0.00943184
0.0187812
0.012228
0.0198322
0.006372
0.00436002
0.00515766
0.0162866
0.00823732
0.00110181
0.0191761
0.0229409
0.0229381
0.00850767
0.0129173
0.00370872
1.86872e-05
0.00928506
0.0185885
0.02219
0.0127748
0.00452321
0.0134
0.0172441
0.0136647
0.0227088
0.00857788
0.00319753
0.0116933
0.0087973
0.00669668
0.0131999
0.0209839
0.00723001
0.0129763
0.00356676
0.0130387
0.00781933
0.0174906
0.0113104
0.00428881
0.0178648
0.00669231
0.0147925
0.0189312
0.00899843
0.01733
1.91339e-05
0.00851443
0.0176794
0.0135855
4.79915e-05
0.0168319
0.0145587
0.00560377
0.0178795
0.012731
0.018128
0.0222924
0.0192715
0.0219532
0.0228168
0.021552
0.0214571
0.0200762
0.0222933
0.0180132
0.00998157
0.0227862
0.0152207
0.000798209
0.00905392
0.0222941
0.0170806
0.0178774
0.00854332
0.0196888
0.00561478
0.00823425
0.0214902
0.0123736
0.0119394
0.00734848
0.0217497
0.0189681
0.00981126
8.91647e-05
0.0064409
0.0226048
0.0229598
0.0214231
0.0211681
0.0132814
0.0203595
0.0220388
0.0203211
0.0102053
0.0210187
0.0167281
0.0183698
0.0230201
0.00870337
0.0175715
0.0176548
0.0180691
0.00949068
0.0197953
0.00998071
0.0237715
0.0175887
0.0234835
0.0162964
0.00767404
0.00685695
4.41372e-05
1.7515e-05
0.0184044
0.0166452
0.0101245
0.022354
0.0060139
0.0194817
0.0176564
0.0189336
0.0192448
0.00839559
0.0197639
0.0177983
0.00074203
0.00589735
0.00276664
0.0106503
0.0173528
0.00915269
0.00409678
0.0227822
0.0161676
5.58986e-05
0.016432
0.0229455
0.0120194
0.0206101
0.0143703
0.0123059
0.0140371
0.0211495
0.0179194
0.0108339
0.0222716
0.0160379
0.0224941
0.0150521
0.0227648
0.0112878
0.0179701
0.00812423
0.0201705
0.0186225
0.0185243
0.0174961
0.0103553
0.0119348
0.0216608
0.0202223
0.0220483
0.0229015
0.0171549
0.0218139
0.00265019
0.00186959
0.00737076
0.0228263
0.0203176
3.78528e-05
3.80054e-05
0.00314586
0.00475879
0.00970956
0.0188913
0.0151663
0.00870792
0.0229807
0.00899349
0.0231109
0.0176944
0.0225061
0.00912533
0.0228355
4.00377e-05
0.0227364
0.0050701
0.0109483
0.0203817
0.00746449
0.0178475
0.00414049
0.0152596
0.0177027
0.0188737
0.00717079
0.00453327
0.0184854
2.27021e-05
0.0132777
0.0188448
0.0057102
0.0223331
0.00860848
0.0205205
0.0187673
0.0225919
3.48556e-05
0.0216166
0.00841384
0.0213744
0.0216134
0.0227529
0.0226251
0.0223816
0.0209346
0.0094177
0.0141247
0.0169092
0.0151202
0.0175883
0.0224636
0.0229747
0.0221304
0.00818623
0.0176078
0.0226447
0.0177539
0.0222277
0.023756
0.00522774
0.0202729
0.0181048
0.0204246
0.0111894
0.0179069
0.0197863
0.00841211
0.0116316
0.022651
0.0225033
0.00256964
3.70456e-05
0.00415212
0.0212318
0.0180493
0.00421227
0.0211335
0.0186539
0.0225283
0.00994677
0.0158303
0.00582525
0.0225657
0.00930226
0.015311
0.00600804
4.34236e-05
0.0185447
0.0207002
0.0203045
0.000905144
0.0226554
0.0197315
0.016006
0.0149262
0.018983
0.0214611
0.0179254
0.0199408
0.0227339
0.00932014
0.0187798
0.00800659
1.95545e-05
0.0115246
0.0199619
2.53982e-05
0.0131988
0.00598731
0.00620277
0.0193744
0.0194764
0.0182518
0.0160855
0.00984227
0.0186016
0.010102
0.0223305
0.0189349
0.0200758
0.0228372
0.00901668
0.0213275
0.0225383
4.33091e-05
0.00531604
0.0184732
0.0102405
4.67324e-05
0.00765504
0.0131002
2.29539e-05
0.00522013
0.0225698
0.0169081
0.0147323
0.0228768
0.017577
0.0229199
0.0181196
0.0189249
0.0181923
0.00670541
4.94843e-05
0.0186137
0.00928281
0.0223619
0.0219412
0.0228134
0.00880532
2.18024e-05
0.0172741
0.0230448
0.00927918
0.00809681
0.00295041
0.0117946
0.0183093
0.0127915
0.022058
0.0218039
0.0190469
0.0223829
0.0104236
0.0221647
0.0137333
0.0105218
0.000849309
4.49327e-05
0.0222644
0.019046
0.0158815
0.010733
0.0109332
0.0168866
0.0155097
0.00628782
0.00527505
0.00773151
0.00551957
4.83615e-05
0.0064022
0.0191714
0.0223721
0.0188333
0.00467992
0.0210541
0.0176297
0.0205986
0.0114286
0.0151948
0.0145209
0.00960365
0.00899878
0.0211584
0.00983436
0.0155313
2.14542e-05
0.0222291
0.00491112
0.0103487
0.0030932
0.0175851
0.0104413
0.0150518
0.00181001
0.0229246
0.0147093
0.0175971
0.0224077
0.022535
0.000640331
0.0199506
0.00134001
0.00627551
0.00338985
0.0227296
0.0054316
0.0228826
0.0098534
0.017084
0.0111775
0.0226085
0.0229144
3.4591e-05
0.00668509
0.022015
2.3697e-05
0.0127966
0.0214043
0.0218527
0.021543
0.009999
2.03945e-05
0.0195918
0.0212787
0.018547
0.0150024
0.0200425
0.0219714
0.016537
0.0171155
4.56081e-05
0.0180561
1.97277e-05
0.0201796
0.0019642
0.00452465
0.0141676
0.014826
0.00212973
0.0226743
0.01799
0.0183317
0.0207312
3.04423e-05
0.0191743
0.0223766
0.0102464
0.00779744
0.00992494
0.016829
0.00195949
0.0187728
0.0210807
0.0228023
0.0102449
0.0104548
0.018681
0.00769855
0.0211761
0.00766643
0.00820193
0.000679426
0.0202032
0.00841807
0.021595
0.0229466
0.000728844
0.00414848
0.0204154
0.0194848
0.0124031
0.014173
0.0212485
0.021563
0.0148358
0.010862
0.0229546
0.0229626
0.00397136
0.0216903
0.0110641
0.0229643
0.00407134
2.99345e-05
0.0179474
4.08844e-05
0.00987476
0.0199641
0.0113408
0.0088862
0.0121742
0.00845739
0.0164347
0.021076
0.0200739
0.0228006
0.0224253
0.0107373
0.0186199
0.00575578
3.26863e-05
0.0224947
0.019159
0.0202313
0.0205793
0.0209253
0.0212599
0.0233301
0.0187985
0.0186736
0.0216198
0.0182262
0.0200447
0.0196185
0.0186452
0.0211157
0.0215489
0.00235588
0.00856668
0.0086793
0.00918342
0.0183339
0.00293947
0.0195324
0.000696197
0.0209424
0.0172244
0.00978276
0.0139915
0.0179329
0.0196663
0.0214328
0.00257199
0.0205993
0.0118005
0.0208977
0.0209447
0.0223391
0.0110981
0.0090614
0.0156643
0.0173855
0.0205339
0.0227612
0.0192924
0.0126056
0.0155721
0.0176616
0.0202181
0.0207615
0.0192021
0.011293
0.00112763
0.00381701
0.0145883
0.00417026
0.011205
0.00753637
0.0132951
0.0141522
0.00928919
0.00205043
0.0215226
0.00605089
0.0106293
0.00602094
0.00184452
0.0155613
0.0194133
0.0111627
0.0190546
0.00077132
0.00793256
0.000926439
0.0189166
0.0170903
0.0110612
0.00601651
0.019677
0.00738025
0.0140394
0.0211348
0.0221795
0.0220884
0.017904
0.017715
0.0226485
0.0229242
0.00564437
0.0228917
0.00979307
0.00977126
0.00250463
0.020651
0.0135733
0.0141005
0.00195652
0.0177209
0.013629
0.0229607
0.00444154
0.0112493
0.0091717
0.0176743
0.0193688
0.0206058
0.000835423
0.0116325
0.0158248
0.0192063
0.00829829
0.0108404
0.0209797
0.0182809
0.0171812
0.00688755
0.017935
0.0199364
0.00841885
0.0137931
0.022935
0.00710462
0.0163267
0.00599879
0.0173089
0.00244935
0.0100767
0.0209706
0.0169173
0.00571607
0.0141394
0.0219511
0.000712724
0.00986034
0.00105635
0.0125887
0.011342
0.0145348
0.0211011
0.0062751
0.0177704
0.0222411
0.0196302
0.02061
0.0222268
0.00343088
0.00761447
0.00954604
0.0134106
0.0188041
0.0151389
0.0229895
0.0165515
1.81299e-05
0.0132756
0.0198612
0.0215951
0.0108448
0.0177647
0.00719823
0.0180666
0.00614381
0.0225879
0.00811899
0.0199319
0.00844737
0.0167737
0.0208483
0.00911024
0.00267967
0.000970252
0.0179583
0.0031907
0.0128187
0.0109127
0.0167218
0.0159244
0.0135817
0.0159866
0.0213052
0.0178877
0.0101887
0.0167572
0.00989047
0.00476107
0.0202678
0.00940511
0.018419
0.00876193
0.0228578
0.0220185
0.0222293
0.0201488
0.00581633
0.00627249
0.0174121
0.0140007
0.0201882
0.0203014
0.0174319
0.018734
0.022577
0.0229262
0.0235146
0.0195374
0.0180711
0.00814785
2.65306e-05
0.0195736
0.0177622
0.0137086
0.00543848
0.0162549
0.0190261
0.0225236
0.00533919
0.0202252
0.0229604
0.022962
0.00380089
0.0225643
0.0185234
0.0198748
0.0149726
0.00022006
0.0109015
0.021187
1.6674e-05
0.00360689
0.0228604
0.0108419
0.00585741
0.022181
0.00981779
0.0183717
0.0224043
0.0181153
0.00371363
0.0189246
0.0136824
0.0101302
0.0226405
0.020863
0.00463513
0.0178413
0.00279566
0.0212593
0.0143864
0.0154819
0.0234066
0.012325
0.00726463
0.0221652
0.0181933
0.0122993
0.0195008
0.00762824
0.00341461
0.00574648
0.0175455
0.018409
0.0224277
0.00852822
0.0185177
0.018245
0.0193769
0.0153196
0.0223331
0.0238095
0.018329
0.0219211
0.0120161
0.00983906
0.0162444
0.0202125
0.00567639
0.0199263
0.0176024
0.0173298
0.00121189
0.0229583
0.0194809
0.00400712
0.0184542
0.0225255
0.0220896
0.00992928
0.0225508
0.0133986
0.00704592
0.0205131
0.00771289
0.0171553
0.0231471
0.00605068
0.00886342
0.00382852
0.0179801
0.0138237
0.0173107
1.90614e-05
0.00567535
0.0228932
0.0144779
0.022755
0.00971668
0.0225481
0.0225158
0.020827
0.0185311
0.0190977
0.0228771
0.00343714
0.0192588
0.0205394
0.0227285
0.0197938
0.000956913
0.0130073
5.22543e-05
0.0186515
0.0233519
0.00538086
0.0226193
0.0221088
0.018961
0.0229865
0.0228644
0.01621
0.0183854
0.0194676
0.013306
0.00932546
0.00479053
1.08416e-05
0.0117249
0.0219745
2.75143e-05
0.00228576
0.0147713
0.00110815
0.00187783
0.00411893
0.0118334
0.0190385
0.0035007
0.0176547
0.00958082
0.0185643
0.0179107
0.0210514
0.0187587
0.007941
0.0154846
0.0013075
0.021893
0.0235455
0.0219236
0.0160708
0.0177827
0.0196371
0.016806
0.0109674
0.0171823
0.00490356
0.0230153
0.0223703
0.00969396
0.0185502
0.0177476
0.0162422
0.0179354
0.0156604
0.00076708
0.0207315
0.0213399
0.0133491
0.0172391
0.0106623
0.0110813
0.0131704
0.0181683
0.0190933
0.0141235
0.00804085
0.0207726
0.0188801
0.00700451
0.0192048
0.0204376
0.0144582
0.0208793
0.00407458
0.0205041
0.00992259
0.0201177
0.0231138
0.017988
0.0197269
0.0215734
0.0124103
0.0178595
0.0177622
0.018175
0.0131478
0.00869446
0.0184594
0.0155242
0.00882017
0.0116287
0.0196528
0.0100548
0.00704798
0.00375438
0.0228947
0.00554334
0.0180998
0.00946824
0.0189009
0.0126452
0.00284117
0.00590302
0.0226651
0.0229947
0.011097
9.86147e-05
5.8864e-05
0.018622
0.00374563
0.018215
0.021504
0.00683906
0.0128757
0.0188805
0.0112662
0.017168
0.022122
0.00564506
0.00255205
0.0120611
0.0186139
0.0216473
0.0171344
0.0187449
0.0209874
0.0186808
0.00785506
0.00824087
0.00998904
0.0187473
0.0181576
0.00815454
0.00992354
0.0112414
0.0160166
0.00799149
0.00875966
0.0227361
0.0227052
0.0176687
0.0192753
0.0194791
0.00102653
0.0113479
0.0228004
0.0230176
0.0228932
0.0182284
0.0167325
0.000868896
0.00892654
0.0180369
0.0177401
0.0179702
0.000673253
0.0123175
0.0102954
0.022638
0.0121905
0.0225014
0.0179845
0.0120835
0.0216081
0.00290722
0.0167831
0.0193962
0.00847039
0.0203628
0.00550423
0.00746762
0.0166923
0.00878026
0.0220873
0.0162934
0.00413801
0.0144229
0.0185313
0.00799748
0.00737852
0.0223741
0.0197106
0.00720325
0.000769973
0.0192693
0.0117117
0.00876863
0.0154074
0.00104796
0.00763668
0.00103294
0.00739119
0.00590809
0.00608959
0.00920683
0.011733
0.00866513
0.0109306
0.0178693
0.0197041
0.0195096
0.0118396
0.0194163
0.00880524
0.00117014
0.0210687
0.0200088
0.0177451
0.0179413
0.0197823
0.00922133
0.0134178
0.0128369
0.0144328
0.0101305
0.00956304
0.0193485
0.0189031
0.0095279
0.0179472
0.0217806
0.0223876
0.0187125
0.00088183
0.0226407
0.00295557
0.0227594
0.0219752
0.00215455
0.0182015
0.0133386
0.00873188
0.0103222
0.00686711
0.0213707
0.0227503
0.0183788
0.0176817
0.0157037
0.00696761
0.00617199
0.0188434
0.00360175
0.00877678
0.00673522
0.0226231
0.0215265
0.0198399
0.0178213
0.0102869
0.0160016
0.00946464
0.0176554
0.00726096
0.0125379
0.0176243
0.0114509
0.00968758
0.0179447
0.011227
0.0114169
0.0129716
0.016743
0.00124091
0.017692
0.0180279
0.0168657
0.0118265
0.0219427
0.00648131
0.0129784
0.00564057
0.0178567
0.0225297
0.00922811
0.0181501
0.0222556
0.0131592
0.00478272
0.0201094
0.0131883
0.0177835
0.00862779
0.0123118
0.0227326