/*--------------------------------*- C++ -*----------------------------------*\
  =========                 |
  \\      /  F ield         | OpenFOAM: The Open Source CFD Toolbox
   \\    /   O peration     | Website:  https://openfoam.org
    \\  /    A nd           | Version:  10
     \\/     M anipulation  |
\*---------------------------------------------------------------------------*/
FoamFile
{
    format      ascii;
    class       volScalarField;
    location    "1150";
    object      p;
}
// * * * * * * * * * * * * * * * * * * * * * * * * * * * * * * * * * * * * * //

dimensions      [0 2 -2 0 0 0 0];

internalField   nonuniform List<scalar> 
23845
(
-0.128201
-0.170415
-0.254594
-0.251537
-0.148001
6.1827e-06
-0.239025
-0.256866
-0.0008412
-0.0868085
-0.0167673
0.000229329
0.000534163
-0.000328789
-0.246382
-0.0424054
0.000938453
0.000278982
-0.00124759
0.00055747
-0.147019
-0.0154389
-0.192019
-0.000395988
-0.0492555
-0.000108843
-0.216046
0.00311862
-0.264497
0.000401256
-0.247377
-0.243652
-0.256929
-2.40833e-05
0.000349724
0.000728321
-0.253781
8.73807e-05
0.00106611
0.0001908
-0.00523423
0.00128884
0.000166345
-1.53909e-05
0.000100355
0.00104093
-0.165587
-0.0327104
-0.236639
-0.267212
-0.244543
-0.247135
-0.236699
0.000947662
-0.246203
0.000456659
-0.195066
-0.254035
-0.150385
-0.231446
-0.262897
0.00238475
-0.0277685
-0.265112
-0.000217325
-0.00136224
-0.227796
-0.000738099
-0.00176131
-0.00365203
-0.259353
-0.25907
-0.00044436
-0.245881
-0.00126928
-0.247529
0.00027509
-0.000390698
-0.253636
-0.00087079
-0.19892
-0.239499
-0.181444
-0.257643
-0.250678
0.000435106
-0.234108
-0.234201
-0.000673472
-0.00139498
-0.248959
-0.0124609
-0.266648
0.00187627
-0.251078
-0.253295
-0.00173059
-0.0379216
-0.00033576
-0.148788
0.000112438
-0.242284
-0.11096
-0.274722
-0.269248
-0.256635
-0.000333479
-0.00106615
-0.229284
0.00142396
-0.0131301
-0.00035587
-0.254952
-0.0626642
0.000576765
-0.128258
-0.000438216
-0.066863
-0.263358
-0.262904
0.000292069
-0.247675
-0.0042125
-0.261377
-0.233492
0.00132132
-0.262014
-0.268471
-0.257308
-0.187055
-0.259
-0.0598091
-0.0388238
-0.000395153
0.0011117
-0.118486
-0.272717
0.000262509
-0.224307
4.62812e-05
-0.263298
0.000762114
0.000525381
0.00036304
-0.0170665
0.00102994
-0.0995589
-0.24595
-0.262471
-0.00503422
-0.242016
0.000798559
-0.223983
-0.000891238
-0.254701
-0.00874943
-0.119829
0.000387739
-0.25974
-0.258069
-0.0081295
-0.250096
-0.249843
-0.000310688
-0.00179674
-0.00342744
-0.00056523
-0.250615
-0.000977771
0.000731864
-0.00089531
-0.252748
9.95863e-05
-0.261101
-0.000463034
-0.252626
-0.0179054
-0.0175806
0.000644465
0.00058308
-0.142543
-0.145577
-0.243749
-0.0100908
-0.0254648
-0.000348621
0.00207993
-0.257066
-0.265693
0.000731061
-0.267184
-0.00182159
-0.000303578
-2.87044e-05
-0.0147546
-0.000596862
-0.272186
-0.267365
-0.281998
-0.0160809
-0.00210022
-0.00113029
-0.26258
-0.0517923
-0.257267
-0.250933
-0.256329
5.12595e-05
-0.172881
0.000555312
-0.00233058
-0.25518
-0.0282305
-0.00189553
-0.24006
-0.25056
-0.0472329
0.0013772
-0.26502
-0.258395
0.000476199
-0.247737
-0.272495
-0.00984872
0.00156631
-0.248023
-0.267919
0.00126582
-0.00025641
-0.00616767
0.000855203
-0.237531
0.000566806
1.38768e-05
-0.133769
-0.262656
-0.000296106
-0.248393
0.00244634
-0.256268
-0.235902
-0.080203
-0.255564
-0.124849
-0.248501
-0.0331956
-5.12089e-05
0.00211263
-0.251416
-0.241588
0.00149553
0.000680556
-0.245594
-6.4995e-05
-0.237081
-0.251275
-0.262485
-0.251344
0.000288665
-0.000441455
-0.232576
-5.51919e-05
-0.261297
-0.0106588
-0.00752884
0.00138325
-0.251886
-0.262727
-0.233983
-0.250419
0.00036004
-0.254603
-0.242027
0.000894932
-0.0114661
-0.00039627
-0.250826
0.00213934
-0.278068
-0.193232
-0.257301
0.00047711
-0.246782
-0.0107229
0.000481632
-0.263446
-0.258753
9.71016e-06
-0.252235
-0.251533
-0.252334
-0.240304
-0.264684
-0.251526
-0.252241
0.000351933
-0.263661
-0.000386548
0.000276796
-0.260557
-0.262583
-0.24473
-0.263341
-0.249371
-0.000304996
-0.248298
-0.267021
-0.243021
-0.000900145
-0.271279
-0.241285
-0.220222
-0.00019538
0.00358312
-0.254294
-0.264703
-0.263437
-0.0359648
-0.252416
0.00010246
-0.270192
-0.253029
-0.262266
0.00102018
-0.250524
0.00028784
-0.252315
-0.196457
-0.263266
0.00118339
-0.248678
-0.012371
-0.24718
4.07323e-05
-0.259986
-0.249232
-0.250843
-0.000141186
0.000957253
-0.252463
-0.253991
-0.262359
-0.0156655
0.000766751
0.000483611
-0.282161
0.000320793
-0.251851
-0.25286
-0.246313
-0.247522
-0.263183
-0.268831
-0.249136
-0.236659
0.00230572
0.000817296
-0.0012001
-0.250757
-0.253639
-0.2596
0.00255886
-0.093297
-0.00869032
-0.264778
-2.48685e-05
-0.260435
-0.000904459
-0.262112
0.000368912
0.00127406
-0.25069
-0.271624
0.000115072
-0.000501449
-0.249519
-0.252659
-0.249903
0.00116308
-0.256927
-0.247967
0.000697092
-0.179875
-0.000458756
7.11582e-05
0.000602899
0.000760854
-0.251871
-0.0016364
-0.252162
-0.230756
0.00183374
-0.267518
-0.270758
-0.240724
-0.258289
-0.0067151
0.000136185
-0.00427003
0.000280325
-0.253076
-0.237641
-0.250371
-0.255373
-0.223275
-0.24627
-0.00018143
-0.268858
-0.267887
-0.262599
-0.250906
0.00108936
-0.234456
-0.262809
-0.12157
-0.253739
-0.231452
-0.00856828
0.000691812
-0.122085
-0.264155
0.000638382
0.000332652
-0.252979
-0.261825
-0.158197
-0.272608
-0.245312
-0.260629
-0.260364
-0.000502201
0.000131245
-0.262301
0.000419196
0.000469102
0.000335333
0.000870134
-0.0001375
-0.264448
-0.260526
-0.24919
-0.268433
-0.269713
-0.26265
-0.241936
-0.26397
0.00101257
-0.219853
0.00126795
-0.255093
-0.254567
0.00161001
-0.275651
0.000800437
-0.000710273
-0.260876
-0.220845
-0.0578206
-0.250646
-0.00257388
-0.19405
-0.252535
-0.270601
-0.209309
0.00148334
-0.000132805
0.000287012
-0.238617
-4.25141e-05
-0.255411
0.00172646
-0.000447489
-0.240634
-0.26241
-0.265932
-0.123726
-0.000907241
-0.246389
-0.000553653
-0.00441165
-0.195432
-0.222416
-0.246048
-0.0163661
-0.00157836
-0.244288
-8.41624e-05
0.000356048
-0.249038
-0.261784
-0.000361734
-0.262456
-0.251801
-0.211481
-0.258859
-0.176982
-0.000785674
-0.255262
-0.000160375
0.000483842
-0.233523
-0.260633
-0.26143
-0.186742
-0.256708
-0.255289
-0.00883528
-0.000662566
1.2083e-05
-0.261635
-0.246189
-0.262443
-0.254666
-0.243712
0.00131746
0.000349233
-0.230271
-0.255279
-0.254548
0.00672843
-0.247256
-0.000124409
0.000414742
-0.26486
-0.000916999
-0.248209
-0.253343
-0.264712
-0.177435
-0.259527
-0.261117
-0.269428
-0.0937803
-0.189854
8.03576e-05
-0.000680019
-0.00104606
-0.263579
-0.148629
-0.254124
-0.259046
0.00325508
-0.178748
-0.179314
-0.0118851
-0.177732
-0.0184114
0.00366989
-0.000209717
0.000992479
-0.00157495
0.000368199
-0.260825
-0.00110037
-0.255224
-0.206492
0.00146865
-0.261241
-3.15908e-05
0.00222651
-0.251193
-0.252906
-0.205742
-0.000374125
0.00286921
-0.271626
-0.268767
-0.000965723
-0.26471
-5.50888e-05
-0.000454288
-0.244204
-0.000788145
0.000912984
-0.0511842
-0.125324
-0.262797
-0.249674
-0.251276
-0.147847
-4.89466e-05
0.00031051
-0.0124252
-0.249634
-0.263957
0.00197499
0.000860709
0.000858668
-0.249612
-0.00145499
-0.19981
-0.25058
-0.153445
-0.00775899
-0.255568
-0.000780303
-0.00074512
0.00339998
0.000542623
0.000348591
-0.252904
-0.00026765
-0.121663
-0.247437
-0.257535
-0.0468512
-0.249122
-0.135101
-0.241226
-0.00774156
-0.193554
-0.123816
-0.20235
-0.123199
-0.263695
-0.12258
-0.0671601
-0.103534
0.00038442
-0.000795537
-0.12599
-0.259478
-0.158794
-0.00315331
-0.150166
-0.00125942
-0.00414622
0.000778669
-0.00139997
-0.054647
0.000587863
0.000800272
-0.212188
-0.000317066
0.00035364
-0.254832
-0.113974
-0.0599251
-0.000461939
-0.00812785
-0.184346
-0.00256748
0.00163569
-0.000592728
-0.116082
-0.0374296
-0.144934
-2.31623e-05
-0.0421912
-0.25534
0.000451175
0.000577658
-0.0734233
-0.256129
-0.264128
-0.266924
-0.262049
-0.0437614
-0.262228
-0.0151491
-0.00396122
-0.00125388
-0.000555713
-0.146734
-0.000594397
-0.00139445
-0.00118472
-0.115543
-0.237536
-0.028781
-0.0443893
-0.0031213
-0.0116102
-0.00743513
-0.00375464
-0.0448345
-0.00143756
-0.0620456
-0.0129535
-0.000348931
-0.0191822
0.000830733
0.00302148
0.00030179
0.000247487
-0.043756
0.000378973
0.00144743
-0.0372235
-0.0379387
0.00181955
0.000464918
-0.0051084
-0.00927895
-0.0144541
-0.0224278
-0.0381964
-0.00192801
-0.0548661
-0.00132649
-0.0187749
0.000304699
-0.00972086
0.000428298
0.000557403
-7.74948e-05
-8.80179e-05
0.001105
0.000631011
-0.00125515
3.77237e-05
-0.23532
0.00184877
0.000605303
0.000241436
0.000835164
0.000239968
-0.00718428
0.00159169
-0.00936576
-0.0156453
-0.00075945
0.00198511
-0.000339658
0.000518497
-0.0265459
-0.0113628
-0.0813175
0.002101
-0.00725403
0.000812171
0.00067165
0.000856856
0.000214464
-0.0317027
0.00192648
-0.10745
0.00160048
-0.000204238
-0.000668112
-0.000888113
0.00122449
3.85779e-05
-0.260969
0.00117643
-0.00115549
-0.0676292
0.00090706
0.00087922
0.00101902
-0.235861
-0.00357472
-0.000211057
-0.0409479
0.00144234
-0.261191
-0.0214234
-0.0146345
-0.0286604
-0.0185134
-0.0523512
-0.00433968
-0.00203478
-0.00527884
-0.0142914
-7.63186e-05
-0.00795046
0.00119853
-0.161541
-0.000470885
0.000645927
-0.0385209
-0.023552
-0.0307058
-0.252561
-0.00864713
-0.00316572
-0.104407
-0.0134196
0.00153975
0.000723978
-9.64454e-05
-0.245444
0.0024028
-0.00715941
0.00192024
-6.6603e-05
0.00135133
0.00260571
0.000987866
0.00106239
-0.000314442
0.000191578
0.00101231
0.00155004
0.00114738
-0.183864
0.00112956
0.00136692
0.0019219
0.00278656
0.000535033
-0.0601146
-0.00291517
-0.0146645
-0.00143231
0.00336444
0.00167845
0.000474316
0.0042884
-0.128213
-0.0277806
-0.0258922
0.000736589
0.000485894
-0.00339247
-0.265201
-0.00861287
-0.00556277
-0.0155313
-0.000520073
-0.00115801
-0.026065
-0.00181234
-0.00200572
-0.000332432
-0.0038787
-0.00119226
-0.000336636
-0.000854823
-0.00113055
-0.000235113
-0.00155879
-0.00481008
-0.00095437
-0.00161423
-0.0411038
0.00129482
-0.00153331
-0.256423
-0.0441266
0.000409935
-2.98315e-05
0.000693086
-0.0244912
-0.0129447
-0.0160502
-0.00784582
0.000318665
-0.00880759
-0.00540018
-0.00891647
-0.0311542
-6.1917e-05
0.00192648
-0.0004227
-0.00110274
-0.00671274
0.00034872
-0.247051
0.000530772
-0.0273071
0.00333949
-0.0643644
0.000815557
-0.00110022
-0.0216797
-0.00819848
-0.0877964
-0.0586302
-0.0104151
-0.105966
-0.00167631
-0.00335628
0.000124023
-4.13185e-05
-0.000433716
-0.000138474
-0.000635407
0.000936276
-0.000805032
-0.0247792
0.000845473
-0.0240149
-0.0311073
-0.0182843
-0.0117186
-0.0967919
-0.00938386
-0.0004396
-0.0243993
-0.000188527
-0.0651957
-0.00374957
-0.000460939
-0.115297
-0.00385302
-0.000471834
-0.00825435
0.000982209
0.000654513
-0.232632
-0.00108368
0.000848862
-0.00183385
0.00073059
0.00111635
0.000533201
-0.00831508
-0.268749
0.000555532
-0.000149595
-0.00402566
-0.00684406
-0.110489
-0.0133795
0.00160431
-0.013922
0.00013902
0.0032441
-0.257249
-0.272567
0.00110916
-0.000137854
0.00320336
-0.223009
0.000296447
-0.250799
0.00192474
-0.000124298
-0.00313061
-0.00209999
0.000858603
0.000765256
0.00117917
-0.100525
0.000484314
-0.139644
-0.0108104
-0.0414647
-0.000248011
-0.0103013
-0.0013334
-0.00623051
-0.00207779
-0.00066513
-0.0199647
0.000371144
-0.0115987
-0.0171987
-0.0257772
0.00327202
-0.0102491
-0.0140651
4.14715e-05
-0.0310896
-0.0175568
-0.00777941
-0.0392974
0.000393139
0.00132743
0.000779539
0.00134697
0.00146655
0.000349981
-0.00976198
0.000313518
0.000990377
-0.00629991
-0.00550749
-0.00603287
-0.000121108
-0.211234
0.00134621
7.59518e-05
0.00145075
0.000960361
-0.00110864
-0.00211867
-0.0123158
-0.0974984
-0.134687
0.000250814
-0.00173622
-0.0206922
-0.0402191
0.00174077
-0.0456724
-0.0013494
-0.00328239
-0.00962553
-0.04077
-0.00124079
-0.0125963
-0.0270731
-0.013468
-0.0318118
-0.0236178
-0.029343
0.00152545
0.00149102
0.00207029
0.00112535
-0.00749497
-0.0133647
0.000183554
-0.281201
0.000673613
-0.256265
0.000223714
0.00052052
-0.26952
0.00101377
-0.00132359
0.000113
-0.000262907
-0.00197361
0.000824071
0.00152505
0.00119996
-0.0449329
-0.263798
0.000804808
-0.00126474
-0.00484758
-0.179554
-0.204116
-0.127545
-0.0169386
0.00066514
-0.0016108
0.00251529
0.000470382
-0.000440404
0.00279478
-0.135005
-0.0938582
-0.0380592
-0.0850987
-0.0566315
-0.103721
-0.124434
-0.0388277
0.00143374
-0.0722818
-0.0212107
-0.0293661
-0.0276958
-0.00984896
-0.0163674
0.000587822
-0.0118822
0.00202105
-0.00726155
-0.00125642
0.000144648
0.00108823
0.000121509
0.00120194
0.000437759
3.20788e-05
-0.0027376
-0.165653
-0.0611994
0.000801235
-0.0907681
0.00071188
-0.0022329
0.00371169
0.000347892
0.000489719
0.00288618
-0.000114263
0.0017684
-0.00319344
-0.000545996
-0.118738
-0.00156228
0.00123119
-0.0821763
-0.000638616
-0.000734974
-0.0037912
-0.0493126
-0.00148602
-0.259076
-0.254659
0.000489046
-0.00893266
-0.0120766
-0.02201
0.00020947
0.00151875
-0.0130779
-0.00528471
-0.00909763
-0.00547823
-0.00225459
0.000759296
-0.275561
0.000583436
-0.0347683
0.00101799
0.000933915
-0.0537072
-0.000404161
-4.4188e-05
-0.263576
0.00136944
-1.79042e-05
-0.00013303
0.00148606
0.00207369
0.000924631
0.00124189
0.00121015
-0.0711885
0.00201465
0.00181607
-0.191753
0.000552293
0.00175703
0.00168
-0.216116
0.000248468
0.000328855
-0.0852434
0.000286312
-0.00156621
0.00120283
-0.000377398
-0.000276786
-0.261141
-0.00110402
0.00186386
-0.00923299
-0.0211541
-0.0924382
-0.0144649
-0.0057349
-0.000558696
0.00123734
0.00106504
-0.00170918
0.00137961
-0.0599422
0.00114721
0.00089179
-0.000433043
-0.000413265
0.000757613
-0.246913
-0.259626
0.00128297
-0.000426861
0.000205534
-0.170535
0.0005273
-0.000731421
-0.016924
0.000644034
-0.251269
0.000670379
0.00214554
0.000571673
-0.0015854
-0.000274358
-0.00283001
-0.0120556
6.37378e-05
-0.0274009
-0.00205789
0.000971632
-0.00377216
0.00236423
-0.00210109
-0.0108972
-0.0047551
-0.0117177
0.000665699
0.00138817
-0.00035239
-0.00257282
-0.00238228
0.00171092
-0.00418129
-0.0033725
-0.0401001
-0.000487103
-0.0007101
-0.0630971
9.66181e-05
-0.00260054
-0.0947341
7.0848e-06
-0.00202099
-0.135189
-0.00132757
-0.000538476
-0.112119
-0.0575217
-0.176442
-0.000994685
0.00397173
-0.0644954
-0.000347335
0.000559719
-0.112367
-0.0300148
-0.051669
0.000677095
-0.0776474
0.000563849
-0.00226726
-0.0487784
-0.0166144
-0.000347157
-0.0142404
-0.0748625
-0.279376
-0.000154747
0.000318782
0.000296937
0.000735099
0.00161086
0.00186413
0.00170342
-0.247521
0.000396662
-0.00143677
-0.0524491
-0.000132682
-0.0259087
-1.55633e-05
-0.158808
-0.000294621
-0.00129141
-0.180873
-0.000774308
0.0025601
0.00022955
-0.00198208
-0.262765
0.000928985
-0.104274
-0.00334972
-0.0259741
-0.259887
-0.252925
-0.056451
0.00140274
0.00050086
-0.186525
0.00184407
0.00327889
0.000191041
-0.128521
0.000960803
0.000629405
-0.000420746
-0.110614
-0.0015019
0.000997465
-0.000827272
-0.00176765
-0.267166
-0.00368946
-0.00479803
-0.0967281
0.000206215
-0.261727
0.000207768
-0.256869
0.00119051
-0.112766
-0.000953239
0.0014965
0.000682031
-0.000280944
-0.00413731
-0.00439988
-0.0102452
-0.0255797
0.000367209
0.000932513
0.000993913
-0.0247086
-0.0223707
-0.000234617
0.000470173
0.000653903
-0.000936021
-0.00521782
-0.00536378
0.00279835
-0.00834497
-0.00672342
-0.0896955
-0.00118124
-0.17242
-0.00155187
-0.00398842
0.00152717
0.00213428
-0.254951
-0.0662879
-0.0342511
-0.000234318
-0.0483079
3.50527e-05
0.00103755
-0.0708908
0.0006268
-0.227079
-0.262262
-0.0982187
-0.0049002
-0.000107318
-0.263852
-0.00309992
-0.00809139
-0.00186723
-0.0582631
-0.199055
-0.00171775
0.000940032
-0.250954
-0.250908
3.31923e-05
-0.0854639
-0.101961
0.000699706
-0.260684
0.000902213
-0.115756
0.000439427
-0.0711869
-0.000339797
-0.0573268
-0.204124
0.000876193
-0.25547
-0.104684
0.000470104
-0.26263
0.00118471
-0.0527653
-0.0972089
-0.25499
-0.000278279
-0.0306562
-0.178549
0.00233248
-0.0897364
0.000785249
0.00210947
0.00311675
-0.00532574
-0.0766689
-0.000351006
0.000459864
-0.139056
-0.00359469
0.00106052
0.00175659
7.80145e-05
0.000804376
0.00153596
-0.0775633
-0.21748
-0.0810266
0.000947441
-0.004813
0.000588775
-0.000489394
-0.00413752
0.000150607
-0.258564
-0.000866189
-0.0867201
-0.258248
-0.000360165
0.000504632
-0.0102746
-0.0298275
-0.0946001
-0.181122
-0.0103258
0.00129414
-0.00437788
-0.001448
0.00104245
0.000823283
-2.27258e-05
0.000250353
0.000733633
-0.0925028
-0.261273
0.000206455
-0.000100882
0.00198368
-0.213843
0.000717753
-0.00534544
-0.00151472
0.0011272
0.00185319
-0.00323023
-0.0250704
-0.0258135
-0.00201805
0.000235588
-0.00533406
-0.243455
-0.254283
-0.000282869
0.00738749
-0.0243057
-0.000636162
0.000205771
0.000104699
0.000280352
-0.00490798
-0.00321882
-0.261691
-0.000491226
-0.245558
0.000634338
0.0013884
-0.193607
-0.00418809
-0.0880688
-0.00295172
-0.0101099
-0.0157025
-0.00663933
-0.00287769
-0.0715154
0.00250768
0.000948294
0.00133027
-0.00188543
-0.253074
-0.00469311
-0.00105391
-0.00466122
-0.0565418
-0.253475
-0.0111361
0.00177225
-0.215655
0.000845844
-0.00016245
-0.0296554
-0.203454
-0.260253
-0.263572
-0.00245468
0.000365238
-0.0227439
-0.000318964
-0.214975
-0.0645455
0.00153707
-0.00871211
-0.145244
0.000136356
-0.216396
-0.0092542
-0.0401495
-0.00312701
-0.131957
-0.0812292
0.000894802
0.000998418
-0.261125
0.00278534
-0.000431133
-0.094957
0.00156444
-0.00875913
-0.0942314
-0.0448336
-0.256497
0.00017269
-1.32462e-05
0.00188786
-0.259843
0.000944001
-0.00185069
-0.00214936
-0.25848
0.000926693
-0.00114728
-0.00126237
-0.259934
-0.0479499
0.000403759
-0.00514822
0.000259643
0.000879316
0.00253886
-0.236404
-0.0192506
8.2337e-05
0.00120597
-0.155903
-0.0418485
-0.000909168
-0.0149893
0.000315156
0.000909734
-0.258357
0.00237025
-0.0293299
0.000432575
-0.0168858
-0.256779
-0.260491
-0.25716
-0.233925
-0.209163
0.000211845
-0.089191
0.00139478
-0.000221191
0.0012836
-0.206135
0.00106996
-0.245057
-0.26565
0.00108239
0.00061004
-0.244035
-0.263426
-0.0784635
-0.234794
-0.101981
-0.20516
0.000373321
-0.097866
-0.26815
0.00134664
-0.245781
0.000679616
0.000478744
-0.174982
-0.26545
-0.260542
-0.189296
-0.155989
-0.000483152
-0.27002
0.000552628
-0.108929
0.000631986
-0.216512
-0.0728604
-0.00190444
-0.165267
0.000486946
-0.000642371
-0.000365052
-0.268497
-0.246019
-0.2566
-0.258913
0.000434863
-0.151424
0.000903728
0.00302132
-0.000336101
-0.044192
-0.260219
0.000913058
-0.00203826
-0.186726
-0.243949
-0.00978
0.000474567
-0.252898
0.0012637
0.000983557
0.000217704
-0.000257203
0.00101439
-2.43385e-05
0.00146428
-0.24429
0.00094723
0.0021226
9.95839e-05
-0.035762
-0.253637
-0.0964096
0.000145051
-0.255607
-0.0676959
-0.0507162
0.000260043
-0.264743
-0.00525042
-0.26949
-0.257011
-0.257876
0.00301369
0.000946922
-0.193058
-0.161883
-0.000449129
0.000476626
-0.151253
-0.173046
-0.214435
-0.012908
-0.266297
0.00360475
-0.25425
-0.00197684
-0.255188
0.000897049
0.00129592
-0.00303903
0.00125715
-0.261236
-0.00146885
-0.252587
-0.256283
-0.00685554
-0.0168581
-0.104895
-0.266429
-0.159199
0.000471035
-0.0715488
-0.0675592
-0.192112
-0.000565687
-0.252876
-0.135963
-0.252081
-0.258485
5.77991e-05
0.000540825
-0.0495552
-0.251995
-0.00645259
-0.173937
0.00186316
0.00178664
0.0010776
-0.000918617
-0.262971
0.000408956
0.000445617
-0.214463
-0.0323013
-0.206783
-0.180096
-0.264499
-0.25328
-0.173691
-0.240836
-0.248194
-0.0778561
-0.0107213
-0.264714
-0.000412081
-0.250923
0.000938798
-0.261986
-0.264538
0.00126337
-0.000807617
-0.000947297
0.00216867
0.000343559
-0.000166251
-0.00355819
-0.000217799
-0.165166
-0.136724
0.000570642
-0.0740039
-0.0480428
-0.246347
-0.263865
-0.25311
-0.25571
-0.257039
-0.193803
-0.267478
-0.0223471
0.000103486
-0.264617
-7.3522e-05
-0.244684
-0.0771831
-0.00547756
-0.260799
-0.0576948
-0.000815412
-0.254179
0.000525651
-0.223044
-0.120487
-0.0261515
-0.242652
0.00297131
-0.149995
-0.00253713
0.000925141
-0.209244
-0.278862
-0.00179477
-0.00303919
-0.0027133
-0.00726643
0.00133185
-0.250112
-0.00383236
-0.00184839
-0.191443
0.000237139
-0.259838
-0.0246385
0.00217947
-0.0406981
-0.256123
-0.262875
-0.259362
-0.260564
-0.236143
0.000484017
-0.241185
3.50985e-05
0.000287316
-0.250912
0.000308802
-0.256436
-0.205579
-0.217394
-0.25788
-0.0071796
-0.242763
0.00131879
0.00124759
0.000165461
-0.00431869
-0.253394
0.00120621
0.000884379
-0.0044082
-0.248309
0.000177817
-0.241006
-0.255987
-0.00164458
-0.265182
-0.258249
-0.203733
0.000562452
-0.256992
-0.0013841
-0.000106353
0.00159167
-0.259748
0.00132361
0.00185415
0.000873688
-0.102354
-0.00019671
-0.252302
0.000968187
-0.000807178
-0.0165913
0.000289247
-0.214543
-0.000540978
-0.000754759
-0.161175
0.000742022
-3.85659e-05
0.000442042
-0.260569
-0.0284729
0.00106547
-0.268513
-0.198008
-0.202101
0.000966399
-0.000721016
-0.249386
-0.19907
-0.24194
-0.179789
-0.246961
-0.243528
0.00324628
-0.251374
-0.224325
-0.000627953
-0.257101
0.00012711
-0.262541
-0.262022
-0.260282
-0.0360352
-0.225233
-0.279779
-0.000832621
0.000389919
0.000507802
-0.24796
-0.251616
-0.245077
-0.270774
-0.221289
-0.00709129
0.00108196
-0.216756
-0.261824
-0.252437
-0.00894702
-0.145267
0.000449618
-0.25443
-0.266839
-0.257889
-0.260298
-0.260144
-0.253714
0.000292693
-0.245679
-0.254741
-0.27393
-0.234063
-0.257381
-0.0150238
-0.253251
-0.261662
-0.0010424
-0.244654
-0.238684
0.00247508
-0.251891
-0.00847262
-0.274876
-0.248044
-0.194633
-0.204509
-0.251364
-0.0156997
-0.201815
-0.253312
0.000640852
-0.222746
-0.000389929
-0.000344009
-0.0762513
0.00225246
-0.000556981
-0.0678334
0.000607692
0.000772422
0.000243153
-0.000587528
-0.211243
0.00138491
-0.093732
-0.273212
-0.259679
7.40121e-05
-0.0173152
-0.000761975
-0.247705
-0.000396061
-0.254622
-0.233392
-0.0236355
-0.243236
-0.257472
-0.247363
-0.0656029
-0.00204183
-0.232771
-0.233358
-0.26013
0.000478884
0.000356134
-2.03976e-05
-0.0153805
-0.211569
-0.000467229
-0.000127398
-0.000209852
-0.260909
0.000341888
-0.0231712
-0.00735907
-0.00293231
-0.261314
-0.0074851
-0.00217309
0.000329193
-0.218468
-0.000314659
-0.249717
0.000448495
-0.0118976
0.00103304
-0.0339215
-0.260935
-0.262974
-0.253628
-0.272082
-0.0196482
-0.0234392
-0.243712
-0.000163237
-0.261594
-0.00551376
-0.000582084
-0.000166944
-0.148485
-0.238695
0.00047006
-0.161437
-0.274157
-0.254632
-0.257953
-0.226147
-0.00239539
-0.260558
-0.2638
0.000614342
-0.0530406
-0.234212
-0.160464
0.000123098
-0.254421
-6.80882e-05
-0.226412
-0.158935
-0.246099
0.000313286
-0.00400436
-0.245034
-0.00111719
-0.0451614
0.00361034
-0.22038
0.000561135
-0.254406
-0.000321011
-0.244199
0.00234216
0.00155263
0.000477481
-0.00946187
-0.233647
-0.250029
-0.00181472
0.000120105
-0.000297866
-0.000151918
-0.0244905
-0.000869715
-0.240567
-0.266528
-0.243443
0.000384188
-0.00110991
-0.255844
-0.248678
-0.240559
-0.264929
-0.235259
0.000351098
-0.229856
-0.234633
-7.55761e-05
-0.238891
-0.0352507
-0.0616146
0.00125167
-0.225874
-0.000452755
-0.253342
0.000569331
-0.260464
-0.251157
-0.00151382
-0.243102
0.000844951
-0.261839
-0.215363
-0.00435107
-0.000336195
-0.244514
-0.260234
-0.0026232
-0.274658
-0.198297
-0.00160077
-0.263376
0.000663376
-0.262166
0.00141566
-0.00219484
-0.00449146
-0.232627
0.000132349
-0.255743
-0.0312022
0.000673275
-0.00076787
0.000942659
0.000432108
-0.000543274
-0.261511
-0.1437
-0.0140006
-0.13023
-0.0134123
0.000450709
0.000497035
0.00234411
-0.232994
-0.132526
0.00051308
-0.00882092
-0.0221633
0.000403062
-0.258094
-0.0677694
0.00088289
-0.00318645
-0.253965
0.000217295
0.000284255
-0.257976
-0.228307
-0.00103951
0.000959828
-0.25897
-0.240277
-0.2644
-0.000142952
-0.00185206
-0.261984
-0.00133544
-0.000263554
-0.00125709
-0.204864
-0.190508
-0.253783
0.000880112
-0.235663
-0.244157
-0.252312
-0.242761
0.00104094
-0.0801643
0.0030937
-0.261233
0.000744078
-0.00100041
-0.0320865
-0.0669693
-0.00404418
-0.0209381
0.000524113
0.000297425
-0.00201843
-0.255477
-0.00417447
-0.241058
-0.27202
-0.179117
-0.000450315
-0.231818
-0.139566
-0.259766
-0.253956
-0.00839693
-0.0808466
0.00246771
-0.070105
-0.219589
0.00116282
-0.258807
0.000486119
-0.00208276
0.00426321
0.000295836
-0.253505
-0.000539148
0.000795828
-0.25068
-0.25198
-0.0018384
-0.252916
-0.245311
-0.247271
-0.249723
-0.276185
-0.260105
0.00058631
-0.222191
-0.0738989
0.000665911
-0.00666557
0.00131047
0.00103049
-4.75223e-05
-0.195985
-0.261025
-0.236126
0.0013917
-0.261266
0.00141133
0.00213655
0.000593986
-0.234314
-0.276692
-0.00800813
0.00046696
-0.258224
-0.259707
-0.271537
-0.24129
-0.148087
-0.206062
-0.00168326
0.00200307
0.00224178
-0.00138778
-0.253281
-0.00082065
-0.109415
-0.20202
-0.276494
-0.238057
0.000308907
0.000828023
-0.23142
-0.254147
-0.257691
-0.025902
-0.0698112
-0.263285
-0.255997
-0.239634
-0.262441
-0.234563
-0.263171
-1.90172e-05
-0.00428869
-0.00407219
-0.261419
0.000106217
-0.00115268
-3.11848e-05
-0.190871
-0.0603832
-0.245812
-0.258498
-0.251008
-0.000649216
-0.209406
-0.228167
-0.273313
-0.00131789
-0.256652
-0.210836
-0.269478
-0.000272342
-0.212819
-0.244735
-0.274192
0.000691806
-0.0723827
-0.00550768
0.000101095
0.00119396
-0.266068
-0.0206798
-0.252798
-0.24771
-0.269714
0.000437546
-0.254693
0.000241653
-0.255181
-0.0115551
-0.183067
-0.000289927
0.000215474
-0.235571
-0.261921
0.0022177
-0.232529
-0.136192
-0.0186035
-0.00198633
0.0017531
-0.253796
-0.278078
-0.000485043
0.000520813
-0.000662844
-0.147491
0.000400042
-7.7954e-05
-0.0293771
-0.00948128
-0.247955
-0.00168704
-0.267966
9.93174e-05
-0.270733
-0.255029
-0.125265
-0.236651
-0.263827
0.000205361
-1.78835e-05
0.00153362
0.000688988
-0.278804
0.00101718
0.00188111
-0.232846
-0.262294
-0.251835
-0.165321
-0.273724
-0.00226418
0.00135868
0.00134655
-0.260432
-0.260166
-0.000360201
-0.254879
8.04297e-05
-0.246317
-0.244399
-0.268809
0.000789471
-0.235293
-0.0017294
0.000271366
-0.269299
-0.262937
-0.00111727
4.55935e-05
-0.257586
-0.249016
0.00137883
-0.00159975
-0.241003
-0.25917
0.00061253
0.000591487
-0.262269
0.000833969
-0.220613
0.000499974
-0.260341
-0.242856
0.000342882
-0.233413
-0.255926
-0.0742278
-0.239718
-0.238673
-0.183708
-0.23442
-0.0349309
-0.00140923
-0.00367669
4.29414e-05
0.000209734
-0.254748
-0.00403003
-0.25892
-0.240252
-0.000102101
0.000937364
0.00013573
0.00069433
0.00100599
-0.0017334
-0.00259341
-0.00138208
0.00119186
-0.00311602
0.00232954
-0.00285008
0.00373732
-0.000795783
-0.0390617
-0.078463
-0.249397
-0.262383
-0.256187
-0.256481
-0.00206255
-0.266874
-1.77661e-05
-0.270056
-0.00207354
-0.0214016
-0.227127
-0.251602
-0.00141806
0.000750099
0.00221745
-0.27694
-0.0746776
-0.255052
0.000533062
9.96263e-05
0.00231845
-0.190485
-0.255266
-0.0493421
-0.00270886
0.000835039
-0.00166688
-0.0021497
-0.130322
-0.051583
-0.00272499
0.000566978
0.000564992
-0.00112678
-0.179686
-0.251301
-0.26564
-0.0728525
-0.26531
-0.180011
-0.261595
-0.0958274
-0.246487
-0.249544
-0.266001
-0.00136206
-0.256601
-0.2075
-0.256997
-0.267788
-0.240502
-0.00195349
-0.258124
-0.00177079
-0.266559
-0.240959
-0.260146
-0.00204726
-0.0154541
-0.231349
-0.255456
6.07277e-05
-0.263193
-0.251922
0.00129926
0.00218424
0.00101799
-0.00073219
-0.0036888
0.000406034
0.000673725
-0.25104
0.000326837
-0.223603
-0.234446
-0.25995
0.000151161
-0.246941
-0.242044
-0.27555
-0.0096738
-0.252054
0.000345563
-0.256535
-0.184456
-0.241954
-0.000715915
-0.00192767
-0.00228354
-0.264947
-0.25587
-0.0400618
0.00126309
-0.261422
-0.176983
0.000130858
-0.00152757
-0.00984121
-0.254442
-0.000702561
-0.000494602
-0.256172
-0.252843
0.00153112
-0.253265
-0.197479
-0.254223
-0.0187556
-0.273613
-0.255699
-0.00155556
-0.0492763
-0.260216
-0.250931
-0.00255941
-0.271366
-0.235291
-0.25606
-0.25711
-0.256622
-0.230877
-0.000236206
-0.259315
-0.000300058
-0.000709327
0.0018929
-0.059253
-7.74727e-05
-0.270236
-0.240291
-0.260925
-0.155947
-0.000314709
-0.241106
0.000411605
-0.0237404
-0.273412
-0.243764
0.000234728
-0.00015836
-0.234053
-0.00131006
-0.251003
0.00080952
-0.256889
0.000883999
-0.259049
-0.00239944
-0.254375
-0.020423
-0.0479083
-0.247972
-0.273451
-0.244878
-1.962e-05
-0.271027
-0.136611
-0.255776
-0.227571
-0.0372541
-0.0969396
-0.0624626
0.000440662
-0.184857
-0.214429
-0.0182929
-0.22763
-0.251055
-0.00246384
-0.253395
-0.00187296
-0.227759
0.000676717
0.000306353
8.73665e-05
-0.0503194
-0.260306
-0.260823
-0.0166228
-0.103302
-0.000963739
-0.000192973
-0.0024851
-0.000636286
0.000185913
0.000390016
0.000898237
-0.00100659
0.00167688
-0.239046
-0.237625
-0.00310776
-0.004464
-0.235219
-0.26027
-0.0557199
0.00205082
-0.00185556
-0.262758
-0.0409449
0.00100764
0.000344587
-0.264705
-0.0318057
-0.0014357
-0.00126859
-0.0680087
-0.263541
-0.243232
-0.0547937
-0.270779
-0.26361
0.000731101
-0.229466
-0.258923
0.000500906
-0.249881
-0.00760975
0.000463353
-0.000645033
-0.266003
-0.00183564
-0.242094
-0.209174
3.44279e-05
-0.0333393
-0.270818
-0.000371475
-0.25441
0.000550765
-0.225811
-0.239433
0.0006496
-0.255382
-0.244371
0.000343266
-0.000564817
-0.252976
0.000392584
-0.243433
-0.267341
-0.260181
-0.0103422
-0.00543881
-0.00201504
-0.257623
-0.000311473
0.00255323
-0.0014776
-0.0579111
0.000771902
0.000148697
-0.00621943
9.1117e-05
-0.235709
-0.258915
-0.0299676
-0.000140148
-0.239504
0.00205333
-0.00100001
-0.00690407
-0.235312
0.00102793
0.000122117
-0.255589
0.00243226
0.00148339
-0.000589253
-0.216754
0.000606863
-0.138954
-0.260388
0.00132358
-0.26044
-0.027691
0.000542055
-0.258163
-0.247665
-0.266485
0.000973165
-0.101008
-0.00335757
-0.269427
-0.249188
-0.000590993
-0.0813438
-8.59046e-05
-0.260273
0.000559013
1.52271e-05
-0.000780112
0.00180815
-0.00156815
-0.000101499
-0.244233
-0.00535126
0.000544302
-0.000608136
-0.000234581
-0.259142
-0.241257
-0.281202
-0.0115838
0.000312069
-0.254198
0.00285255
-0.000255102
-0.000214029
0.000303429
0.000928652
-0.0462531
-8.07293e-05
-0.000154998
-0.112509
-0.259642
-0.263701
-0.281164
-0.229687
-0.00153356
-0.245726
-0.262325
-0.071119
-0.242441
-0.275591
-0.243623
-0.160045
-0.00316518
-0.252617
-0.000804678
-0.249629
-0.00058423
-0.160874
0.00186062
-0.00104427
-0.249468
-0.223326
-0.238443
-0.000455987
-0.035036
-0.0389984
-0.0454444
-2.8952e-05
0.000507044
-0.0203171
-0.258858
-0.010992
-0.25633
-0.025159
-0.00176811
-0.256154
-0.00134102
-0.00215225
-0.0366025
-0.000718029
-0.199767
-0.275966
0.000425345
0.00166576
-0.234131
-0.00986566
-0.234947