/*--------------------------------*- C++ -*----------------------------------*\
  =========                 |
  \\      /  F ield         | OpenFOAM: The Open Source CFD Toolbox
   \\    /   O peration     | Website:  https://openfoam.org
    \\  /    A nd           | Version:  10
     \\/     M anipulation  |
\*---------------------------------------------------------------------------*/
FoamFile
{
    format      ascii;
    class       surfaceScalarField;
    location    "1150";
    object      phi;
}
// * * * * * * * * * * * * * * * * * * * * * * * * * * * * * * * * * * * * * //

dimensions      [0 3 -1 0 0 0 0];

internalField   nonuniform List<scalar> 
38623
(
0.216857
-0.213784
0.0787106
-0.0817839
-0.0594595
0.0767802
0.122733
-0.140053
-0.00694093
0.0134614
0.0331191
-0.0396396
0.00431635
-0.00237281
-0.0224608
0.0205173
0.0152226
0.0263984
-0.0332666
-0.00835444
-0.126283
-0.254176
0.23828
0.142179
0.0846739
-0.0709183
0.0821012
-0.0958568
-0.00863342
0.00853192
-0.00640873
0.00651023
0.0198704
0.0203415
-0.244093
-0.0359536
0.0793172
-0.320215
0.276852
0.11001
0.124405
-0.111198
-0.123218
-0.219719
0.194398
-0.00537824
0.0306992
0.461452
-0.0463474
-0.46821
0.053106
-0.229746
0.208817
-0.010435
0.0313645
0.0376583
0.0464653
-0.052099
-0.0320245
0.0440484
-0.293355
-0.047759
0.297066
-0.014958
0.386248
-0.000224546
-0.371066
-0.00876478
0.264621
-0.00921735
-0.246639
0.00614608
-0.0272057
0.411735
-0.390676
0.402111
-0.282415
0.239172
-0.358868
0.182701
0.138306
-0.0435747
-0.277433
0.10847
0.080547
-0.0790069
0.317156
-0.271643
-0.00176578
-0.0437466
-0.221688
0.291817
-0.265788
0.19566
0.0429511
0.25155
-0.0438345
-0.250666
-0.0377457
0.577295
-0.550276
0.0107262
0.0306534
-0.178131
-0.0555176
0.202995
0.223079
-0.178613
-0.491225
0.446758
-0.00919051
-0.000761816
0.00139456
0.00855776
-0.273357
0.292557
0.382911
-0.0149471
-0.0205946
0.0195384
0.0160033
0.00564217
-0.00153997
0.000773186
-0.0048754
0.0286098
-0.0320079
-0.0331322
0.0365304
0.292669
-0.024578
-0.276856
-0.010269
-0.0111262
-0.236739
0.258134
-0.340693
-0.172854
0.145631
0.367916
-0.000608651
0.000144021
-0.00719
0.00765463
0.00534609
-0.235334
-0.147542
0.166548
0.00339778
-0.0224041
-0.0566801
0.0719412
0.318942
-0.334203
0.0663587
0.413114
-0.429843
-0.0496294
0.271322
0.184328
-0.25379
-0.20186
0.331359
-0.185357
0.332854
-0.478856
-0.415396
0.203328
0.336373
-0.124306
0.600262
0.241887
-0.515184
-0.326965
-0.0301272
0.0737486
-0.429568
0.385947
-0.0137761
0.0267676
-0.00121766
-0.0117738
-0.260988
0.19338
0.155322
-0.0877137
-0.000916864
0.00188133
0.000998082
-0.00196255
0.00752898
-0.000497702
-0.00767722
0.000645951
-0.00496569
-0.00134941
0.00145987
0.00485523
-0.0108788
0.0287912
-0.0230585
0.00514614
-0.0018747
0.000703596
-0.00170776
0.00287887
-0.381728
-0.109221
0.294793
0.196156
-0.00101196
0.000439266
0.00621487
-0.020858
-0.396158
0.402058
0.0396018
-0.022883
-0.0545579
0.0378391
-0.00437102
-0.00808321
0.00852347
0.00393076
-0.141056
0.185008
0.138749
0.00194015
-0.00724285
0.00574788
-0.000445168
-0.0091805
0.00360963
-0.00319331
0.00876419
-0.341134
-0.109362
0.0351005
-0.33738
0.326184
0.0839679
-0.0727724
-0.00572135
-0.00746916
0.00879346
0.00439705
-0.247485
-0.322991
0.348787
-0.50147
0.352563
-0.229934
0.37884
-0.168297
0.144031
-0.0249299
0.0491959
-0.537202
0.423333
0.175417
-0.0615489
0.121898
0.540082
-0.0617178
-0.390267
-0.0650706
0.0644818
0.390856
0.00888453
-0.00309224
-0.00896961
0.00317732
0.0144223
-0.007673
-0.0136902
-0.0502187
-0.0189904
-0.516188
0.585398
0.0605799
-0.0611653
0.0382437
0.401911
-0.38056
-0.268836
0.0410764
-0.0609188
0.0587117
-0.0388693
0.0218862
-0.181295
0.175379
-0.0159702
0.113686
0.18954
-0.194168
-0.109058
-0.0117571
0.00534876
-0.00522014
0.0116285
0.0374456
-0.0294863
0.341651
-0.34961
-0.10975
0.224995
-0.20733
0.092085
0.0447142
-0.0560023
-0.0881739
0.099462
0.0706656
-0.0905234
-0.0106025
0.00846857
-0.000414804
0.00254877
-0.017828
0.042352
-0.0249427
0.000418718
-0.235579
0.246343
-0.0218906
-0.0579688
0.0917674
-0.0988131
0.0650145
-0.00141562
0.000363508
0.000306736
0.000745379
-0.289898
-0.102589
0.136603
0.255885
0.361912
-0.364701
0.0402349
-0.0068695
-0.000322927
0.00656042
0.000631999
-0.423756
0.0719857
0.402613
-0.0508427
0.00395143
-0.0074398
-0.00223298
-0.332861
-0.187257
0.201307
0.318811
-0.00685361
-0.00325128
0.00526158
0.00484332
-0.00740018
0.000111639
-5.79948e-05
0.00734653
0.494595
-0.112906
-0.392216
0.0105269
0.0754678
-0.103618
-0.232838
-0.280169
-0.0295175
0.0674687
0.242218
0.00735309
-0.00134259
0.00921215
0.347927
0.0639229
-0.0958146
-0.316035
-0.0383991
-0.103016
-0.0268812
-0.0579528
0.0222784
-0.124308
0.159982
-0.00672564
8.57018e-06
0.00672041
-3.34532e-06
0.00127853
0.00749925
-0.00829322
-0.000484554
4.69978e-05
0.00198263
-0.0126322
0.271446
-0.107547
-0.290182
0.226087
0.417711
-0.144634
0.149599
-0.0433634
0.353753
-0.315738
-0.126963
0.0889479
-0.113487
0.154065
0.0903314
-0.13091
-0.273945
0.0795442
0.199747
0.0567103
-0.0402534
-0.0342849
-0.00520808
0.287557
-0.000765704
-0.281584
-0.139375
-0.330685
0.129368
-0.307018
-0.0536457
0.0584167
0.302247
-0.183721
0.370704
-0.553985
0.367002
0.0539838
-0.283063
-0.0559761
0.285055
-0.000147217
0.000307494
-0.00935079
0.00531903
-0.00773693
-0.00421751
0.00663542
-0.119818
0.0233364
0.210167
-0.000180545
0.00577418
0.000229183
-0.00582281
-0.0420405
-0.382358
0.0402564
0.384143
-0.00547716
0.00389924
0.00686071
-0.00528279
-0.0925661
0.0850746
-0.0955249
-0.0794238
-0.672894
0.552638
0.19968
-0.00893319
0.0024284
-0.00267571
0.00794024
-0.000138332
-0.000272937
-0.00118903
-0.0100415
-0.00462411
0.0158546
0.0171175
-0.0106295
-0.0158265
0.00933845
0.0081035
0.00899084
-0.00678668
-0.0103077
0.0288218
0.162896
-0.148159
-0.0435591
0.132166
-0.000573634
-0.0186444
-0.112948
-0.211873
0.201528
0.0567077
-0.0463635
0.42063
0.0875066
-0.196893
-0.311244
-0.0981855
0.215308
-0.175076
8.51133e-05
0.00636767
-0.00643669
-1.60927e-05
0.042119
0.174165
0.0513756
-0.120329
-0.169313
0.238266
-0.109035
0.151033
0.00862566
-0.00865862
-0.000114252
0.166388
-0.182708
-0.255971
0.27229
-0.141649
-0.239837
0.218873
0.162614
0.0815355
0.301076
-0.112922
-0.269689
0.363202
0.0135848
-0.0383286
-0.338458
0.473258
-0.193611
0.0741066
0.288124
-0.0541466
-0.283191
0.0492143
-0.067438
0.0390062
-0.019224
0.0476557
-0.00353978
0.0027091
0.00672851
-0.00589783
0.0238552
-0.371373
0.38843
-0.040912
0.0465982
-0.00318122
-0.03911
-0.00430697
0.269964
-0.119835
-0.462365
0.312236
0.0694869
-0.0885901
-0.056791
0.0758942
-0.0504272
0.432816
0.146791
-0.529179
0.0347299
-0.0327198
0.0215643
-0.0235743
-0.0641823
0.0489654
0.292288
-0.277071
0.0153901
0.0802646
-0.0733763
-0.274184
0.156792
0.234305
-0.116913
-0.0099135
0.0107647
-0.00621799
0.00536677
0.00229194
0.0102819
-0.00844437
-0.0041295
0.0554175
0.3802
-0.381995
-0.053622
0.0806336
0.0292727
-0.0446927
-0.0652136
0.00251781
-0.00938083
-0.00134178
0.0082048
-0.162964
0.164883
0.462249
-4.21071e-05
-0.411493
-0.0507136
0.000240907
0.366255
-0.342641
-0.189058
0.188298
-0.0671458
0.0679058
-0.00622622
-0.00168517
0.00704554
0.000865842
-0.229499
0.403433
0.205939
-0.379874
0.280106
0.128397
-0.242115
-0.177318
0.0312753
0.183977
-0.037935
0.0193401
0.00488814
-0.0199119
-0.234558
-0.313968
0.225535
0.00207189
-0.0071333
-0.000415751
0.28581
-0.54724
0.337275
-0.075845
-0.013426
0.000230978
0.0104026
0.00279242
0.334883
0.0523313
-0.335343
-0.0518717
0.0520208
0.244256
-0.0546182
-0.241658
-0.265028
-0.0291514
0.276217
0.0179624
-0.201765
0.170231
-0.127944
0.159477
0.0091481
0.00588938
-0.0121496
-0.00288786
0.02136
-0.00477922
-0.00743273
0.0754863
0.035465
-0.0698749
-0.0968269
-0.131637
0.0770845
0.151379
-0.0423349
0.0909924
-0.399375
0.350718
0.420611
-0.408397
-0.0330721
-0.194466
0.0820551
-0.00462018
0.00506751
0.00802123
-0.00741498
-0.000782883
0.00562855
0.00256931
0.286418
-0.197804
-0.00268817
0.00452973
0.00690878
-0.00875034
-0.392142
0.0721778
0.0413886
0.278576
-0.301527
0.361205
-0.116358
-0.295024
0.142549
-0.180861
0.333336
-0.0520928
-0.324112
0.0597847
0.31642
0.152875
-0.203714
-0.294682
0.34552
0.000367736
4.41169e-06
-0.00749037
0.00711823
-0.000532847
0.00712369
-0.00927901
0.00210285
-0.00624827
-0.000528208
0.00467363
0.161926
-0.131823
-0.14359
0.319596
-0.024527
-0.294828
-0.261728
-0.326
0.279126
0.308602
-0.00447564
0.00675325
-0.0058174
0.0134344
-0.123684
-0.0332048
0.143454
0.00953057
-0.00708872
-0.0110753
0.00276656
-0.00955587
0.00930711
-0.0299589
0.0161942
0.0228255
-0.00906083
-0.0647052
-0.196736
0.0802955
0.181146
0.193845
-0.0036051
-0.0599913
-0.130249
-0.094474
0.233119
0.0656297
-0.204275
0.307419
-0.0378586
-0.299047
-0.00803295
-0.000741161
0.00816546
0.355994
-0.345151
-0.0531783
-0.443527
0.247182
-0.0331545
-0.0031705
-0.0011909
0.0024867
-0.00449507
0.00113142
0.00925784
-0.00589419
0.111815
-0.00954133
-0.0888391
0.039242
-0.29884
-0.0001868
0.00724976
-0.00123142
-0.00583154
-0.0119114
-0.00957714
0.0075369
0.0139516
0.0810007
-0.0529465
-0.513908
0.485854
-0.0395505
0.0392116
-0.00698235
0.000329875
6.81603e-05
0.00658432
0.314574
-0.0755981
-0.303158
-0.0988924
0.308303
0.0182481
0.0299446
-0.0138177
-0.034375
-0.000155957
0.00702644
-0.00736818
-0.310383
0.0711155
-0.243676
0.063515
-0.0044846
0.184645
0.402762
0.0484571
-0.401651
-0.0495682
-0.200019
0.238823
-0.281101
0.242296
-0.00241586
8.33748e-05
-0.00141639
-0.062222
-0.210307
-0.579727
0.602057
-0.0600758
0.049899
-0.0398655
0.0163649
0.0108501
0.000374616
-0.00676318
-0.00446148
-0.248256
-0.366862
0.0281717
-0.00852894
0.00257085
-0.0222136
0.061559
-0.470144
0.524719
-0.116133
-0.0117082
-0.00672843
0.0113374
0.00709918
-0.0014131
0.00236588
0.000928551
-0.308099
0.0442588
-0.0522265
0.316067
0.00127558
-0.0122233
0.0109947
0.0123512
-0.00029728
0.0378451
-0.00110778
-0.00613039
-0.121749
-0.320689
0.105058
-0.0869889
0.254216
0.104219
0.0376507
-0.492636
-0.0601989
-0.0112171
0.00253786
-0.000701564
0.0784467
0.0229658
-0.0207789
0.121352
0.45975
-0.429419
-0.151683
0.0762639
-0.224905
0.3096
-0.160959
-0.00499797
-0.00127465
0.00172773
0.00454489
-0.487546
0.487531
-0.046654
0.0466697
0.100564
-0.0133966
-0.0578945
0.0046947
-0.00766028
0.00185779
0.00668685
-0.00584346
0.00440763
-0.000671977
-0.00677537
0.00303972
-0.0902527
-0.337669
0.0911711
0.33675
-0.303895
-0.213786
0.000663324
0.000698266
-0.0532951
0.0826625
-0.308091
0.278723
0.000606005
-0.00859026
-0.000948938
-0.113593
0.170831
0.0326433
0.261484
-0.245162
0.0564168
-0.36257
0.378094
-0.00998294
-0.00904697
0.00560391
0.00870522
0.00551065
-0.00926369
-0.00495219
-0.0338765
0.0066787
0.00899261
0.0182052
0.00887962
0.0169192
0.178599
-0.253462
-0.119305
0.00538729
0.0188384
-0.00488562
0.000399978
0.000681638
0.00272373
-0.00380535
0.0938525
-0.221049
0.292408
-0.165211
0.109458
-0.150763
-0.246917
0.0392422
0.000463672
0.00725456
-0.00737479
-0.000343443
0.0575384
-0.0840041
-0.283917
0.00664606
0.000839765
-0.000714086
-0.00677174
0.274513
-0.317333
0.0866008
-0.043781
0.0076772
-0.0150445
0.00934995
0.0835749
-0.0498518
-0.277399
7.18587e-05
-0.000435691
-0.00460185
-0.0713125
-0.331383
0.0850156
0.31768
0.236262
0.0385716
-0.235587
-0.0392466
0.00721759
0.00534723
-0.00295174
-0.00961307
0.00598675
-0.0036638
-0.0056028
0.00327984
0.0905726
-0.363575
0.55126
-0.278258
0.00824562
-0.00874642
0.00326736
-0.0485568
0.0473404
0.0359462
0.00320668
-0.0141928
-0.00265132
-0.00197585
0.00321406
0.00433203
-0.00836684
-0.00343435
0.00326825
-0.00459363
0.00573301
-0.0107977
0.00377974
-0.0119316
-0.224819
0.00569172
-0.00517087
0.00461624
-0.00513709
-0.35761
0.307602
0.0124078
-0.00856029
-0.239426
0.00898952
0.000456147
-0.00897661
-0.000469055
0.00466339
-0.00764588
-0.00912241
0.0121049
-0.030159
-0.0319696
0.017482
0.0446466
0.00947113
0.00168642
-0.0271871
0.0200701
-0.0141481
0.0212651
-0.122544
-0.393529
-0.0207569
-0.0149592
0.00718273
-0.00154111
0.00315183
-0.00411994
0.376273
0.052473
-0.0808191
-7.57375e-06
-0.00688967
0.0017331
-0.00346733
0.0549516
0.0475233
-0.032988
-0.396465
0.0634557
-0.0607437
0.393753
0.136422
-0.201232
-0.112507
-0.0108845
-0.001405
0.00772999
0.00455952
0.00834083
-0.000476985
0.00609021
0.0054594
0.100429
-0.0423236
-0.079668
0.0215627
-0.00334165
0.00635118
-0.0373835
0.00701167
0.509921
-0.479549
0.00232998
-0.00863221
0.0066321
-0.00179081
0.000803409
-0.0018873
-0.00503388
0.00110138
0.0058198
-0.366723
-0.285244
0.208441
0.0636312
-0.0337412
-0.228395
0.0207284
0.213464
-0.00579803
0.0126392
0.0125442
-0.0141469
-0.0110364
0.00123515
-0.00599608
0.0218784
0.00434829
0.00696932
-0.00486602
-0.00645158
0.208316
-0.0963095
-0.206481
-0.0801273
-0.0213122
0.0581718
0.0432677
0.00704826
-0.215543
-0.173846
0.382341
-0.0076935
0.00128768
-0.284251
-0.0159114
0.246868
0.00737218
0.00426757
-0.00729147
0.00347898
-0.0233689
-0.0103534
-0.00223953
0.000420735
0.0121722
-0.162781
-0.257967
0.0657219
0.355026
-0.272833
0.31531
0.153556
-0.196032
-0.00913168
0.00883253
-0.00968379
0.00542061
0.0147343
-0.0152667
0.00651352
-0.102754
0.0803141
0.588032
-0.608218
-0.0592375
0.489644
-0.656371
0.225774
-0.0590463
-0.00155057
-0.00724842
0.00142623
0.00737277
-0.104596
-0.175087
0.204955
0.0747277
-0.000468544
-0.00824962
-0.0321984
0.0202875
0.0114058
-0.00539159
-0.0163676
-0.00469852
0.0054056
0.0111661
-0.0118732
0.00713848
-0.000202419
-0.0074689
-0.000222077
-0.00601155
0.000383488
-0.000846789
0.00282918
0.0498163
0.247093
0.0642959
-0.186199
0.303512
0.226502
-0.343815
0.368354
-0.604691
0.355332
-0.118995
-0.0626614
0.0519337
-0.0134464
0.010351
0.0114154
0.141863
-0.389356
0.23418
0.013313
-0.0484227
0.0284475
0.334674
-0.0145654
-0.313061
0.00288852
-0.00135275
-0.00895075
-0.210004
0.0658011
-0.0598687
0.204071
-0.00355257
0.00343316
0.00708873
-0.269703
0.213392
-0.27655
1.33454e-05
0.0432031
0.472872
0.0612201
0.156263
-0.227906
0.00649152
-0.00520296
-0.00209357
0.003391
0.00390553
-0.0478601
-0.143486
0.162235
0.0291109
-0.39154
0.00137053
-0.00576255
-0.0017855
-0.00357903
-0.00551998
0.00505977
-0.0214927
0.297627
-0.203721
-0.0154356
0.00442276
0.00352458
0.00748823
0.0634135
-0.0603045
0.0605222
-0.0228311
-0.30009
0.0148301
0.212482
-0.404249
0.269508
-0.0777409
0.479687
0.0697388
-0.0597816
0.0678636
-0.0595581
0.138325
-0.20508
0.25174
0.192163
0.00628304
0.00789825
0.259359
0.0520076
-0.0521608
-0.259206
-0.00365202
-0.0112848
0.0147053
0.173429
-0.136759
-0.03867
0.239094
0.00206896
0.0063923
0.00670545
0.00116154
-0.00288076
0.0095789
-0.00644988
0.000255703
-0.00338473
0.0141661
0.221322
-0.202845
-0.558151
-0.446546
0.122638
0.0134628
-0.320545
-0.00673936
0.00309484
0.0238228
0.0214342
-0.0318349
-0.0134221
0.00739373
0.00367326
-0.00282138
0.00843004
-0.00698512
0.0039757
0.00617906
0.0260607
-0.0386692
0.0064294
-0.0442962
0.0709063
0.0488762
-0.166451
-0.0793217
0.13438
0.111392
0.00468361
-0.00755659
-0.000144662
-0.00968966
-0.00296704
0.0038897
-0.0086596
-0.0467177
0.705527
-0.0602674
0.109859
-0.0154533
-0.0589404
-0.00435433
0.0057069
0.00601961
0.0718031
0.0780942
-0.0573143
-0.0925829
-0.0142415
-0.00776772
0.0111304
0.00426164
-0.0322402
-0.00589794
0.138908
0.0571021
-0.118926
-0.218877
-0.0372579
0.0676657
0.188469
-0.0573736
0.255094
0.048434
-0.246155
-0.00335786
0.00558719
0.00691292
-0.00914225
0.309266
-0.20174
0.19663
-0.304156
-0.217929
-0.0714528
0.129934
0.159448
0.0118562
-0.0089958
0.00906672
-0.00934552
0.000884801
-0.236447
0.172172
-0.00538444
0.011213
0.00308129
-0.0089098
-0.0183174
-0.00546429
0.00883463
0.00177053
0.00628812
-0.000529957
0.00916119
-0.177389
-0.201296
0.3798
-0.332427
-0.027859
-0.0195145
-0.00515341
-0.00236463
0.00575401
0.00176403
-0.13388
0.175799
-0.2047
-0.332797
0.353271
-0.179307
0.158833
-0.526994
-0.0616636
0.50104
0.087617
-0.112863
0.166503
-0.1015
-0.0340778
0.0257573
0.428932
0.00225185
0.00861384
-0.00443027
0.0024729
-0.00170643
0.0512105
-0.036795
-0.00226381
0.000937188
-0.00203123
-0.00334232
-0.00529746
0.00850582
-0.0130367
0.0153287
-0.00982338
0.00533385
-0.461388
-0.19663
0.291295
0.0119092
-0.0382353
-0.00451707
0.0308432
-0.317752
-0.0427749
0.004686
0.00724689
-0.00443768
0.0271165
0.484177
-0.561721
-0.0010936
-0.00254004
-0.0017508
0.187959
-0.0732978
-0.219258
-0.154228
0.322553
-0.00526047
0.00835524
0.00208383
0.00603538
0.00788769
-0.10275
0.00407035
-0.00933596
-0.265568
-0.377888
0.0750783
0.144995
-0.0766858
-0.143387
0.0197252
0.00922445
4.26756e-06
-0.000125645
-0.0069287
0.00705008
-0.00983413
0.0160306
-0.00690688
0.000710394
-0.318629
-0.00903225
0.0592257
0.268435
-0.0553292
0.195191
-0.248919
0.267286
-0.306256
0.0016162
-0.619469
0.0698376
-0.0585868
-0.0106387
-0.0353773
-0.208708
-0.175529
0.0578512
0.326386
-0.0669273
0.196477
-0.194255
0.0202662
-0.0214402
0.0226083
0.00852809
-0.00651436
0.00472298
0.00632111
0.0105138
0.0375094
-0.032633
0.533374
-0.562841
-0.273307
0.302773
-0.00629983
0.139454
-0.427741
0.511366
-0.0139403
-0.330691
0.343685
0.000946218
-0.0243421
0.025714
-0.0205671
0.0191953
0.0503648
0.000670307
-0.0391259
-0.0160462
0.00588517
-0.0105959
-0.138612
0.0315962
0.151396
-0.0443801
0.214021
-0.0587898
0.0438943
-0.199126
-0.0733874
0.0493583
0.0630353
-0.19823
-0.117453
0.0100055
-0.261566
0.055246
0.196314
0.0416772
0.0198272
-0.0264168
-0.0350876
0.000692375
-0.00165007
0.00764455
-0.0465029
0.365147
0.0184307
0.00329644
-0.0116165
-0.0101106
-0.00653281
0.00504896
-0.00461609
-0.0427453
0.00912601
0.00967683
0.00539648
-0.00554274
0.0214498
-0.0260569
-0.0153834
0.0199905
-0.113449
-0.538301
0.124757
0.0116297
-0.0103776
0.0045104
-0.00576257
0.41191
-0.160687
0.126989
0.221658
0.0822902
0.0600939
-0.0769835
-0.0654005
-0.000307841
-0.00854349
-0.000461905
0.00931324
3.59979e-05
-0.00103864
0.00773115
0.0204599
-0.0233522
0.00908782
-0.0090963
0.00794448
-0.00793601
-0.0131938
-0.00204524
0.00301577
0.0786892
0.163372
-0.0906817
-0.440342
-0.0436197
0.0311597
0.452802
-0.485319
0.0370039
0.00748162
-0.020958
-0.0173424
0.0233412
-0.00296403
0.00401951
-0.000209846
-0.000112698
-0.00744129
0.00776384
-0.016738
0.318599
-0.747423
0.185998
-0.0580448
0.0355285
0.019098
0.0322723
0.00658111
-0.0102436
0.0245195
-0.0211653
0.0169333
-0.153151
-0.308686
0.0447567
0.41708
0.000114759
-0.00505544
0.000445606
0.290971
0.207696
-0.359212
-0.0992245
0.0743762
0.00484099
0.00364469
-0.632964
-0.0567288
-0.0577293
0.11764
-0.0241357
-0.0927561
-0.000747819
0.0371515
0.0863781
-0.00494955
-0.00673568
-0.0216764
0.324962
-0.0908044
0.00664412
0.00245173
0.000483043
0.00382382
-0.0101309
0.0185336
0.00972966
-0.0170504
0.00800421
-0.0558856
0.0163884
0.031493
0.262686
0.0211883
-0.243631
-0.0402429
-0.392012
0.379171
0.02583
-0.0129883
-0.0413165
-0.433104
-0.0775169
-0.36753
0.179479
-0.00663193
0.0133192
-0.0165328
0.0098455
-0.0133883
-0.00502564
-0.00683087
-0.364832
0.264193
0.0565442
-0.0462244
-0.0415486
-0.0455444
-0.355512
-0.0602582
0.344458
0.296806
-0.0489744
0.0448009
-0.131305
-0.052108
0.579852
-0.0785275
-0.169966
-0.336409
0.248618
-0.331266
0.28298
0.288905
-0.240619
-0.0333567
0.131776
0.334396
-0.00365215
-0.00407916
0.00114673
0.00658459
-0.362596
-0.170859
0.502415
0.0310392
-0.00571226
-0.000853708
0.0114315
-0.00486553
0.0723341
-0.124164
-0.0489409
0.100771
-0.272766
0.179769
0.396509
0.00772172
-0.00224684
-0.264296
-0.0259793
-0.362161
0.101888
0.286253
0.00841632
0.00128471
-0.0192909
-0.00382105
0.0141161
0.0119111
-0.0126023
-0.00914294
-0.383943
-0.15719
0.0797449
0.234318
-0.072159
0.00105289
-0.000212768
0.00586532
0.00579997
-0.00223351
-0.541498
0.00420809
0.00724354
-0.0085631
0.041216
-0.482416
-0.0463467
-0.596908
0.540608
-0.0571495
0.177059
0.0254715
-0.0398395
-0.394029
0.14994
0.0223739
-0.341401
-0.0467302
0.365757
0.00867554
0.00772761
-0.00494411
0.00627236
-0.00488083
-0.0168669
0.00397313
0.0182994
-0.00722187
-0.000375
-0.0128165
0.0135377
-0.00227908
-0.546638
0.604667
-0.0557505
0.0130733
-0.363535
0.0669272
-0.0589037
0.0298464
0.0340035
0.00430534
-0.154942
0.285045
0.0963997
0.0396889
0.476798
-0.477141
-0.0393454
0.548198
-0.523361
-0.000711841
-0.00522785
-0.230981
0.226054
-0.23075
0.255573
0.0129867
-0.0378102
-0.004194
0.0275043
0.0232879
-0.0281956
0.259121
-0.0047183
-0.226207
0.0648296
0.152768
-0.00828127
-0.00021489
0.00843817
0.0436107
-0.259029
-0.564356
-0.033352
-0.0586632
-0.0970384
0.0231771
0.281616
-0.0152072
-0.00178771
-0.056767
0.169009
-0.172104
0.059862
-0.024386
0.0217742
-0.292736
0.203509
0.0102213
-0.00728233
0.00153791
-0.00447692
-0.0488537
0.0570987
0.00868577
0.216588
0.0358663
-0.209503
-0.00437961
-0.00893455
0.0063394
0.0454821
0.0763432
0.070468
0.298001
-0.0761806
0.0277975
0.0072505
-0.0145881
0.0102512
-0.0624175
0.123969
0.0314777
-0.0250784
0.0451453
-0.0515446
0.0111565
-0.00608772
-0.00456449
0.00481847
0.00405136
0.109348
-0.0286484
0.0912591
-0.171958
-0.015444
0.0354138
0.0071864
-0.0271562
0.0880481
-0.37216
0.396109
-0.306365
0.244196
-0.42332
-0.00475916
0.0149726
-0.0104932
0.00673276
0.00605241
0.0209031
-0.221177
-0.066362
0.18751
0.100029
0.0843705
-0.090367
-0.02727
0.169588
-0.0748752
0.0700212
-0.164734
0.386152
-0.39766
0.0608793
-0.0493714
0.250723
-0.1359
0.183889
-0.298712
0.416207
-0.422525
0.0563266
-0.0500089
0.453292
-0.375203
-0.0557154
0.452292
-0.0209677
-0.338552
-0.0466807
0.506585
-0.0354165
0.000538834
0.0302616
-0.167013
-0.375704
0.341606
0.201111
-0.0250213
-0.0414398
-0.100725
0.152758
-0.0259547
-0.320654
-0.51716
0.025919
-0.0553971
0.176878
-0.0307758
-0.131936
-0.0229333
0.0144347
-0.00213082
0.0720333
0.245339
-0.0580138
-0.369633
0.0272819
-0.0420674
0.475061
-0.460275
0.208951
-0.0902795
0.0139833
-0.0311927
-0.184991
0.2022
-0.0411924
0.278208
-0.265212
-0.0467135
0.487897
-0.0386835
0.226038
0.0292337
0.0195444
-0.0156627
-0.326988
0.315248
-0.127635
-0.243678
0.0778635
0.242079
-0.0155609
0.0276927
-0.0275758
-0.00095289
-0.0137245
-0.00906673
0.0277942
0.0164717
-0.0257322
0.00262336
-0.00343131
-0.00215607
0.257479
-0.0446131
0.00551207
-0.00746583
0.0308089
-0.0410519
0.182969
-0.172726
-0.372171
0.190999
0.253205
0.379581
-0.0173266
0.000327905
-0.362582
0.320846
0.0349652
-0.0483915
-0.0480779
0.355463
-0.0443993
0.0389766
-0.35004
-0.110523
0.771415
-0.0562246
0.406828
0.0595037
-0.0501247
-0.00165313
0.0136499
0.0258484
-0.0149879
-0.0320411
0.0255887
0.0139369
-0.00237908
-0.212505
0.200947
0.337536
0.170804
-0.0550477
0.214286
-0.180284
0.0218572
-0.0558599
0.246077
-0.197743
0.161691
-0.196702
0.085183
-0.0501716
0.167008
0.116844
-0.0695661
0.0693588
-0.00245281
0.0138617
-0.0807677
0.173919
-0.0759637
0.0716333
0.037913
-0.0162022
0.013703
0.239906
0.107565
-0.101394
0.359669
-0.0163817
0.00707358
-0.350361
0.153689
-0.141434
0.121939
-0.134194
0.223367
-0.236664
-0.066139
0.079436
0.30282
-0.518652
-0.0928541
0.171796
-0.0689198
0.0956083
-0.198484
0.359271
0.022716
-0.0223174
0.172447
-0.170227
0.0336463
0.0201287
0.415113
-0.410617
-0.0246254
0.279237
-0.315412
0.0149426
0.0212324
-0.0417482
0.191417
-0.135685
-0.0403743
0.235219
0.226122
-0.206005
0.143729
-0.163846
0.270417
-0.185566
0.201567
0.0523791
-0.0594172
0.168729
0.00712992
0.145021
-0.136305
-0.0158463
-0.0232784
0.122757
-0.108913
0.00943454
0.0924177
-0.0486821
-0.0695737
0.0258381
0.0580345
0.0155234
-0.00419906
0.164073
-0.0719398
0.0349582
-0.0284471
0.0314019
0.0771656
0.216328
-0.119575
0.169757
-0.147891
0.202746
-0.0549931
0.0756139
0.238419
0.100835
-0.099349
0.0900611
-0.052145
0.013782
-0.0237603
0.318595
-0.308616
0.332328
-0.0240488
0.0177351
-0.326015
0.237259
0.0293848
0.0125931
0.24436
-0.123579
0.129941
0.296663
-0.206441
-0.063276
0.0647383
-0.409062
0.407599
0.386664
-0.375791
-0.0083832
-0.00249007
0.0272193
0.0230455
0.289326
-0.496092
0.233684
0.248204
-0.211471
0.386875
0.0165715
-0.0171989
0.234499
0.14534
-0.135479
-0.325104
-0.123613
0.158534
-0.092558
0.0836829
0.172247
-0.188642
-0.275965
0.201493
0.263115
0.162411
-0.149363
-0.00591842
0.129171
-0.120853
0.210018
-0.196751
0.0638986
-0.00443821
0.314537
-0.345626
0.0355271
0.416099
-0.0327317
0.00329702
-0.120051
-0.318014
0.100397
0.227068
-0.44247
0.306394
-0.0436434
0.347412
0.0432776
-0.347047
0.0304948
-0.0285175
-0.0175382
0.125166
0.325655
-0.144992
0.0552581
0.154564
-0.0622744
0.313531
-0.312172
0.0609154
-0.00589435
0.301293
-0.321654
-0.168031
0.0610562
-0.427832
-0.0608717
0.427648
0.0536892
-0.0760972
-0.0814598
0.103868
-0.0811796
0.192722
0.268258
-0.0079483
0.00719648
-0.00372509
0.301058
-0.404388
-0.252917
0.483831
-0.252882
-0.406678
0.175728
0.274581
0.417319
-0.333413
-0.0557479
-0.0281579
-0.000567521
0.00144659
-0.00944883
-0.00134328
0.258403
-0.359348
0.0293127
-0.0178222
0.191493
-0.11779
0.343616
0.361658
0.190273
-0.357269
-0.194661
-0.263592
0.267156
-0.375723
-0.00800723
-0.0586586
0.461423
-0.113846
0.0474419
-0.0603906
0.01669
0.0312129
-0.0054017
-0.180616
0.17359
-0.134408
0.0956602
-0.123647
-0.0734205
0.07527
0.0518398
-0.116068
0.0568076
0.116635
-0.0573746
-0.0484259
0.0745679
0.00881624
-0.30404
0.15514
-0.0670306
-0.0336263
0.201746
0.00875791
0.0237731
0.158431
0.147977
0.0994046
-0.0310529
-0.090507
0.082107
-0.328548
0.336948
-0.19348
0.0538673
-0.0455281
0.0778939
-0.156979
0.170652
0.223586
-0.268772
0.160231
0.170973
-0.0624321
-0.0515347
0.0361486
-0.0846177
0.0609679
-0.0174164
0.018963
-0.00713653
0.102585
-0.0989242
0.234759
-0.37351
0.377778
0.0988929
-0.103161
0.0377841
0.0486108
0.0384217
0.262321
-0.255448
-0.0452948
-0.0715426
0.324673
-0.33431
0.24932
-0.0762363
-0.140005
0.0365858
-0.005131
0.000919323
0.00293703
-0.42571
0.0135825
-0.195992
0.0986771
0.1999
-0.317012
0.298824
0.163273
-0.145085
0.0212953
-0.462118
0.47352
-0.0326979
-0.135488
0.327201
0.210779
-0.336299
-0.111512
0.141564
-0.174523
0.22038
0.285249
-0.141619
-0.329196
0.332224
-0.0236559
-0.259005
0.283866
-0.06074
0.0408578
-0.317893
-0.259336
0.344369
0.232859
0.00532847
0.0074593
-0.0209166
0.0081288
-0.0727579
0.0233248
-0.228964
0.278397
0.447765
0.270169
-0.435805
-0.282129
-0.214516
0.201385
0.205853
0.249094
-0.152666
0.0874605
-0.284515
0.200307
-0.0351026
-0.0167546
0.00343127
-0.299187
-0.0934658
0.171475
-0.212666
0.0293859
0.221791
-0.0385113
-0.23339
0.185355
0.239034
-0.469913
-0.0301594
0.148924
-0.0386021
0.00333782
-0.00858018
0.421342
-0.434047
0.0153834
0.272912
0.145752
-0.0470938
0.0242526
-0.101467
0.22721
-0.180758
-0.0547736
0.0518331
-0.0816772
0.0113419
0.369454
-0.0587478
-0.322048
0.240958
0.177602
-0.258329
-0.136366
-0.0899934
0.218348
0.00801074
-0.00737554
-0.00632434
0.0327654
0.410089
-0.0493679
0.334198
-0.0514075
0.50372
-0.498546
-0.0518873
-0.44944
0.456333
-0.050513
0.346211
0.0625075
-0.0527244
-0.435813
-0.049988
-0.433075
0.427004
0.0559749
-0.0499045
0.490372
-0.538801
0.103302
-0.0548733
0.378299
0.0571057
-0.0492531
-0.516046
0.538708
0.0306
-0.0532623
0.499061
0.0140309
-0.0508425
0.514764
0.0534211
-0.515646
-0.0525396
-0.573019
0.68397
-0.057114
-0.0538377
-0.482272
0.0500781
0.48773
-0.0555364
0.442686
0.0594925
-0.452805
-0.0493738
-0.0496166
0.0609849
0.396131
-0.050288
-0.432876
0.440395
0.0426373
-0.050156
0.090051
0.302181
-0.0546957
-0.0657745
0.180467
-0.26707
0.25943
-0.166883
0.0125791
-0.00853436
0.00374786
0.0683673
-0.0564737
0.151346
-0.224878
0.215395
0.312148
-0.20687
0.311802
-0.0393697
0.323776
-0.27047
-0.0113479
0.00134098
0.132764
-0.201697
-0.0364474
0.0264562
0.155012
-0.0266443
0.331108
-0.338106
0.3589
0.0291144
-0.0499086
0.442083
0.0172732
-0.0492669
0.359984
0.0244504
-0.0502365
-0.435454
0.367269
-0.0535632
0.179255
-0.0454282
-0.222281
0.336467
-0.392468
0.402627
-0.161328
-0.00941034
-0.0130827
-0.3636
0.386093
0.050042
-0.0552119
0.167405
0.0547516
0.0255632
-0.21181
-0.256627
0.0920472
-0.109791
0.274371
0.256687
-0.41994
0.0158891
-0.0375418
-0.0134498
0.237397
-0.257724
-0.252289
0.272616
-0.242115
-0.157189
0.114788
-0.344063
0.356985
0.03945
-0.0523718
-0.381485
0.421881
-0.0498073
-0.317935
0.325565
-0.0560524
-0.34551
-0.0556477
-0.355941
0.360479
0.0457306
-0.0502682
0.316386
-0.318789
0.0577701
-0.0553668
-0.577185
0.466184
0.160347
-0.0493455
-0.38441
0.40197
0.0317705
-0.0493298
-0.535053
-0.0638414
0.649952
-0.0510569
0.47646
0.16906
-0.593428
-0.0520927
0.475515
-0.453495
0.0312286
-0.0532491
0.504757
-0.491605
0.0406985
-0.0538498
0.0601092
-0.391836
-0.0104156
0.00816019
0.316793
0.203741
0.236187
-0.268955
0.214869
0.159993
-0.147652
0.339425
-0.230649
0.366782
-0.246953
-0.024169
-0.28846
0.0591306
0.105655
-0.107978
-0.360694
0.0552385
-0.0504855
-0.0556956
0.0290351
-0.0500407
0.0788917
0.449874
-0.0523061
0.0547098
-0.0525617
0.506685
0.0522074
-0.0541356
-0.332716
0.0430921
-0.0558856
0.0432045
-0.0493155
-0.0534736
-0.3245
0.0603462
-0.0546349
-0.455642
-0.0720891
-0.0494536
0.0148938
-0.0508868
-0.124338
-0.380324
0.256936
-0.293349
-0.0447781
0.0544291
-0.162356
-0.0284384
-0.270137
0.287587
-0.161104
0.0214936
0.173767
-0.390172
0.273931
-0.23527
0.228068
0.216632
-0.187715
0.00262322
0.00030709
0.0017533
-0.107039
0.102027
-0.238666
-0.161531
-0.00783495
0.0168581
0.141596
0.299863
0.223065
-0.0439771
-0.34211
0.0530417
-0.278527
-0.0415846
0.0585945
-0.0477988
0.0396905
-0.0504861
-0.000377447
0.00491598
-0.266113
0.224868
-0.458304
0.132413
-0.0298873
-0.00168256
0.194188
0.0543502
-0.0474354
0.436758
0.0515139
-0.0527955
0.525209
-0.0324245
-0.0653457
-0.427439
0.0591123
-0.0495005
0.235322
-0.349407
0.0834114
-0.335184
0.00965762
0.0265284
0.0371042
0.260405
-0.274415
0.191612
-0.0489475
-0.299263
-0.106045
0.383162
-0.367624
-0.0792911
0.0850733
-0.00203437
-0.308851
0.0829567
0.0612189
-0.186336
-0.00415174
0.227755
-0.107124
-0.00284023
0.380754
-0.370841
0.184908
-0.103862
0.133824
-0.0110967
0.0033299
0.0405827
-0.0490778
0.0756657
0.0255604
0.104885
-0.0498988
-0.422211
-0.0926686
0.28149
0.00975767
0.144749
-0.156886
0.0418927
-0.0513609
-0.0439425
0.261048
0.302233
-0.202467
-0.27992
0.180153
0.166032
-0.0608225
0.34855
-0.14673
-0.242355
0.0710708
-0.292273
0.278365
0.191379