/*--------------------------------*- C++ -*----------------------------------*\
  =========                 |
  \\      /  F ield         | OpenFOAM: The Open Source CFD Toolbox
   \\    /   O peration     | Website:  https://openfoam.org
    \\  /    A nd           | Version:  10
     \\/     M anipulation  |
\*---------------------------------------------------------------------------*/
FoamFile
{
    format      ascii;
    class       volVectorField;
    location    "1150";
    object      U;
}
// * * * * * * * * * * * * * * * * * * * * * * * * * * * * * * * * * * * * * //

dimensions      [0 1 -1 0 0 0 0];

internalField   nonuniform List<vector> 
23845
(
(0.711308 -0.106716 1.18667e-20)
(0.474474 0.0965727 -5.22068e-21)
(0.238973 -0.0114534 2.75111e-20)
(-0.136435 0.0167776 7.30193e-22)
(0.0751751 0.0583323 5.40942e-21)
(0.81005 -0.0071584 -2.58082e-24)
(0.915945 -0.0284701 -1.28763e-20)
(-0.0755976 0.0664458 -2.67584e-22)
(0.934842 -0.00775664 6.2458e-24)
(0.852372 0.0963679 -5.85062e-21)
(0.447625 -0.0478449 -5.5089e-21)
(0.750196 -0.0008238 3.96392e-24)
(0.927316 0.0153983 1.63485e-23)
(0.890146 -0.00838943 1.54825e-24)
(0.713533 0.0336512 -2.16571e-20)
(0.933706 0.0732425 -1.04314e-21)
(0.808227 0.0205146 1.6864e-23)
(0.599009 -0.0161813 -8.04927e-24)
(0.948429 -0.025714 -1.8658e-22)
(0.775025 0.00836367 2.76601e-22)
(0.888615 0.0977202 1.91803e-20)
(0.400344 -0.0361732 -9.83192e-21)
(1.05626 -0.0514881 -3.20437e-21)
(0.941331 -0.00819727 6.92752e-24)
(0.759582 0.0870253 -1.02314e-21)
(0.992824 0.00719729 -1.07558e-23)
(0.937099 0.0519532 1.07078e-20)
(0.804825 -0.00869339 4.3289e-22)
(-0.0526815 -0.117516 7.83316e-21)
(0.800789 0.00951961 -1.67379e-22)
(-0.148762 -0.0088437 3.23241e-20)
(-0.0310719 0.0859199 4.18498e-22)
(0.414679 -0.019567 1.01254e-20)
(0.648425 -0.0216792 -7.63843e-24)
(0.74703 0.000562416 -1.56775e-23)
(0.740234 0.00421222 2.2317e-22)
(-0.0436794 0.116755 -7.18601e-21)
(0.749039 -0.000806873 -4.03097e-24)
(0.777625 -0.00416814 -1.82562e-23)
(0.918987 0.00905156 8.49986e-24)
(0.97686 -0.0320381 1.39605e-22)
(0.735019 -0.0159459 3.5865e-22)
(0.948808 -0.0137469 -1.87493e-22)
(0.681982 0.01336 -1.88257e-22)
(1.01124 -0.00727898 -4.61421e-23)
(0.884856 0.0161125 6.06337e-23)
(-0.0707064 -0.0249564 -1.85771e-21)
(0.891629 -0.0703407 -4.67721e-21)
(-0.0235434 0.00963448 1.56958e-21)
(-0.0595623 -0.115548 3.44606e-21)
(-0.0491165 -0.0441079 7.18896e-22)
(0.154587 -0.0149092 -4.02438e-21)
(-0.0220219 -0.0406965 -3.66172e-21)
(0.857413 -0.00901366 -1.5855e-22)
(-0.0342644 0.0957777 7.63063e-21)
(0.865523 0.0205831 1.85921e-23)
(0.21003 0.0702346 2.72008e-20)
(-0.0907237 -0.0367219 1.88108e-20)
(0.782035 0.104049 -3.72525e-20)
(0.00972825 0.02582 -1.73807e-20)
(-0.0429195 0.102917 2.5581e-21)
(0.69568 0.0151376 6.59415e-23)
(0.922132 0.0624398 -1.15804e-21)
(-0.0377692 -0.096651 3.36484e-21)
(0.960769 -0.00830261 4.48478e-25)
(0.909389 0.014885 -1.0595e-22)
(0.978136 0.0343773 1.10231e-20)
(1.0197 0.00671263 9.43229e-23)
(1.01804 -0.00724258 -1.79539e-22)
(0.937647 -0.0328192 5.83286e-23)
(-0.0606136 0.0873917 2.73006e-22)
(0.146073 0.00594671 1.67838e-20)
(0.983531 0.00947297 9.32007e-24)
(0.794902 0.0313953 1.24766e-20)
(0.981055 -0.00804037 -2.8271e-22)
(0.656568 0.0324773 -7.78224e-23)
(0.755576 -0.00194698 -5.38889e-24)
(0.774702 -0.00455216 2.32693e-23)
(-0.118683 -0.0226201 3.83103e-21)
(0.787564 0.03041 3.22233e-24)
(0.9676 0.0693514 -2.58755e-21)
(0.680207 -0.0382337 -3.80729e-20)
(0.32441 0.0850226 -4.59341e-21)
(-0.0851127 -0.0533311 -7.94631e-22)
(0.242437 -0.00287473 -7.8992e-21)
(0.748371 0.00178253 -3.72189e-23)
(0.608192 0.0579276 1.45134e-20)
(-0.0176589 -0.0134302 1.70724e-20)
(0.961007 -0.00777404 9.47565e-23)
(0.854422 0.029568 -1.26573e-22)
(-0.0477856 -0.0816146 -1.27141e-20)
(0.971999 0.0413468 -6.544e-22)
(-0.0482578 -0.106223 1.13557e-20)
(0.749421 -0.00495325 -1.75983e-22)
(-0.0877574 -0.0249152 2.81855e-21)
(-0.0535415 -0.0918724 -3.56383e-20)
(0.844103 -0.019734 2.363e-23)
(0.873026 -0.0729032 -3.63434e-22)
(0.979776 -0.00799367 2.11673e-23)
(-0.0112082 0.0379612 -8.2265e-21)
(0.849217 -0.023494 6.45058e-23)
(0.974511 0.0308953 3.77792e-21)
(0.40519 -0.0980256 1.50405e-20)
(-0.0689594 -0.0877357 -1.59396e-20)
(-0.0541727 -0.0939559 -2.96608e-20)
(-0.0934619 -0.0452767 5.24178e-21)
(0.829955 -0.00810043 9.75908e-24)
(0.992994 -0.00795993 1.64965e-22)
(1.03477 0.0258642 -1.7024e-21)
(0.710202 0.0139484 1.93896e-22)
(0.495982 -0.0437014 -1.62399e-21)
(0.754059 -0.00214711 -8.08615e-24)
(0.357082 0.0116879 1.61003e-20)
(0.846092 -0.088685 -2.22089e-21)
(0.744016 0.00476013 -1.10839e-22)
(0.954163 -0.0887455 -2.74137e-21)
(0.978032 -0.00769428 -1.26049e-22)
(0.939673 0.0831618 -5.93489e-21)
(-0.0525065 -0.118994 5.75433e-21)
(-0.0224612 0.0841221 -1.59235e-20)
(0.767035 -0.00350629 -2.50086e-23)
(-0.0394414 -0.0935364 -1.97629e-21)
(0.937995 0.0324227 6.60933e-23)
(0.0224841 0.0438715 3.50371e-20)
(0.958668 0.0295265 -3.6533e-21)
(0.987558 0.0075995 -1.74239e-23)
(-0.0458832 0.0994683 2.15378e-21)
(-0.0606388 -0.110954 -1.30179e-20)
(0.124774 0.0228173 1.05769e-21)
(-0.058593 -0.0339265 1.26841e-20)
(0.128621 0.0276113 1.85995e-20)
(0.469779 0.0847639 5.97866e-22)
(0.316356 -0.0511194 2.71835e-22)
(0.858119 -0.00804802 1.59043e-24)
(0.824665 -0.0289613 3.22612e-23)
(0.572549 -0.106947 4.34985e-21)
(-0.0658873 0.0939703 3.33396e-20)
(0.751536 -0.000970512 1.05897e-23)
(1.0262 -0.0300624 6.46378e-23)
(0.782495 -0.00493215 1.73845e-23)
(-0.0550946 -0.123775 -1.57445e-20)
(0.726047 -0.0138942 -1.17923e-22)
(0.766745 0.00528513 5.18089e-23)
(0.658378 0.0127465 3.49799e-22)
(0.928238 -0.054157 -2.39835e-21)
(0.698538 0.0120892 -2.13561e-22)
(0.953465 -0.0876426 -3.17749e-22)
(0.387598 0.0216324 4.29885e-20)
(0.00874678 0.0734548 -1.30116e-20)
(0.867407 0.0394835 2.25688e-22)
(0.436913 0.0173138 -1.68872e-20)
(0.951256 0.0107916 -2.90449e-23)
(0.443172 -0.0643866 1.55161e-20)
(0.904562 -0.0111145 9.15969e-23)
(0.319634 -0.00520319 -5.85142e-21)
(0.728086 0.050588 -8.72087e-22)
(0.232171 -0.0831844 -5.20353e-21)
(0.750336 -0.00305889 -7.91191e-23)
(0.154493 0.02072 1.30085e-21)
(-0.0537683 -0.107239 3.75304e-21)
(0.926628 0.0408777 2.96305e-22)
(0.658486 -0.0308937 -1.81951e-21)
(-0.082998 0.0124598 -1.03272e-21)
(0.95306 -0.00798336 1.70174e-23)
(0.993703 -0.0156874 -2.03926e-23)
(0.788594 0.0391278 1.8569e-22)
(0.828419 -0.00733521 -2.70355e-23)
(-0.0447865 0.101137 -5.67086e-21)
(0.796582 -0.00828997 -3.37829e-23)
(0.696229 -0.0112855 2.6755e-22)
(0.841351 0.00816396 2.42639e-23)
(-0.117934 0.0215543 5.22277e-21)
(0.947297 -0.00866968 1.41091e-23)
(-0.0119199 0.0455038 -7.38913e-21)
(0.958221 0.00851986 2.84853e-22)
(-0.106845 -0.00158315 -4.48976e-21)
(0.975327 0.0494376 6.3985e-22)
(0.671675 0.0610153 1.55097e-21)
(0.993467 -0.0072182 -1.0756e-23)
(0.754932 -0.0033827 2.78341e-23)
(0.00646075 -0.0414777 6.94613e-21)
(-0.0418783 -0.0248013 8.34069e-22)
(0.760917 0.03482 1.10174e-20)
(0.482037 -0.0359032 -6.69391e-22)
(0.925009 -0.0629067 -3.08314e-21)
(0.916512 0.020096 1.11122e-23)
(0.724215 0.0155115 -7.35698e-23)
(-0.0774816 -0.0605182 2.75678e-21)
(-0.0553002 0.117336 1.84824e-21)
(0.762499 -0.0164802 -4.69211e-23)
(-0.0467588 0.102174 2.9509e-20)
(0.888272 -0.00825803 2.58834e-23)
(0.894073 0.00863651 8.67357e-24)
(0.846162 0.00837259 -1.64324e-23)
(0.936142 0.0502882 -8.64602e-22)
(0.909113 -0.00829671 -7.01828e-23)
(-0.064873 -0.0926968 -2.74384e-21)
(-0.0557137 0.108418 1.94827e-21)
(-0.0789196 -0.070384 -1.0076e-20)
(0.562764 -0.0519368 2.61674e-22)
(0.70032 0.0379776 -8.12438e-23)
(0.897554 -0.00916955 -3.2201e-22)
(0.0022877 0.0746272 -6.86507e-21)
(0.349147 0.0681711 1.2143e-21)
(-0.0820035 0.0589393 1.165e-20)
(-0.0838608 0.0260995 7.35642e-22)
(0.21663 0.00180956 -3.84013e-20)
(0.804764 -0.00605835 -1.59247e-23)
(0.737283 -0.0902321 -1.14681e-20)
(0.610037 0.0199877 -1.79325e-22)
(0.719066 0.0285897 -6.06818e-23)
(-0.0483519 0.114439 1.06497e-20)
(0.976072 -0.0578723 9.72661e-23)
(0.828574 -0.0106287 4.53626e-23)
(-0.0342303 -0.0361357 2.51819e-21)
(-0.0395718 -0.10689 -6.01302e-21)
(0.247182 0.0480026 -3.77274e-21)
(0.701284 0.0163335 -5.79441e-23)
(-0.0525255 0.118277 1.56705e-20)
(0.148621 0.0272799 -1.87784e-22)
(0.978837 -0.0103978 -2.86329e-23)
(0.729528 0.0329047 -6.51693e-21)
(-0.0668567 0.0907829 -2.08422e-20)
(0.815056 0.0514248 -1.03984e-21)
(0.6709 0.0105621 -1.13442e-22)
(0.45686 -0.0208768 2.14939e-20)
(-0.059417 -0.112387 -7.50637e-21)
(0.885924 -0.00811643 5.96835e-23)
(0.809375 0.00807947 4.07581e-24)
(0.976439 0.0322777 5.62309e-22)
(0.769811 -0.00536138 1.22631e-22)
(-0.0282302 -0.00639378 -9.52081e-21)
(0.753454 -0.00222704 6.48842e-24)
(1.01461 0.00660861 -2.46079e-23)
(0.116546 0.0633262 8.4554e-21)
(-0.0497758 -0.112573 -1.06602e-20)
(0.967268 -0.0086546 6.581e-23)
(-0.153537 0.00799299 8.83252e-21)
(0.955303 0.00833008 9.68199e-23)
(-0.0796778 -0.0263928 2.20631e-20)
(-0.0222129 0.0248232 8.75533e-21)
(0.940848 -0.086768 6.65172e-21)
(-0.0969374 -0.0431149 -1.28742e-20)
(0.122804 0.0660106 -1.40204e-20)
(-0.0424663 0.0921064 3.16305e-21)
(0.912856 0.0651242 -2.45202e-22)
(0.838408 -0.00808259 4.22112e-25)
(1.01823 -0.00664432 2.87861e-22)
(-0.0962787 0.0113697 2.12546e-21)
(0.60827 -0.0300666 5.2339e-21)
(0.852737 -0.0149938 -4.14873e-23)
(0.747426 0.00276298 -1.06893e-23)
(-0.0511314 0.0538728 -4.41604e-21)
(0.965394 0.0146254 -2.93386e-25)
(0.787803 -0.0294892 -8.0231e-21)
(-0.0507853 0.0872362 2.18714e-21)
(-0.00498222 0.0734418 4.2309e-20)
(-0.0615037 0.0614111 7.54961e-22)
(0.743124 -0.0046854 1.88092e-23)
(0.932621 -0.00872618 -1.1746e-22)
(-0.0134788 0.000543282 -2.11796e-20)
(0.743483 -0.00213179 -2.22454e-23)
(-0.0501323 0.0952234 -3.48586e-21)
(0.543961 -0.0455233 1.95839e-21)
(0.636526 0.0461989 -2.68104e-23)
(0.944208 0.00795149 -2.56939e-23)
(-0.1161 -0.00449579 -3.11681e-21)
(0.0556361 0.044966 -1.41923e-21)
(-0.140345 -0.00146156 5.53909e-21)
(-0.147712 0.00969747 -1.55854e-20)
(0.767228 -0.00387034 9.70987e-24)
(-0.114213 0.0270867 -3.12044e-21)
(-0.0437754 -0.0145369 -5.12183e-22)
(0.88152 0.00881486 -7.26317e-23)
(0.436888 -0.0319255 -1.12747e-21)
(0.901524 0.00884646 1.05879e-23)
(-0.0589379 -0.0690951 6.94827e-21)
(0.876903 -0.00807036 -3.13571e-23)
(-0.065427 -0.0720342 3.71754e-21)
(1.05835 0.0550465 1.83226e-20)
(-0.0837068 -0.0474316 1.89397e-20)
(0.813919 0.00817134 -1.88132e-23)
(-0.0603526 -0.0340656 1.01439e-20)
(0.87672 -0.0489922 6.18333e-23)
(0.744427 0.000141631 -1.59475e-23)
(-0.0206517 -0.0881003 -1.29605e-20)
(-0.0266525 0.0355127 -3.96192e-21)
(0.911872 -0.00811244 -3.93391e-23)
(-0.0850321 0.0381337 -3.90104e-22)
(0.426545 -0.0192647 1.00528e-20)
(-0.108474 0.0101383 2.57431e-21)
(-0.0363625 0.0295679 -1.06272e-20)
(-0.0352445 -0.098148 2.61011e-20)
(-0.0603433 0.0724803 -5.24148e-21)
(-0.0962882 0.0235273 3.3786e-22)
(0.747915 -0.00103461 -6.01221e-24)
(-0.0115434 0.0829783 1.67661e-20)
(0.85312 -0.00847669 -9.06934e-23)
(0.746915 0.00157168 -5.41426e-24)
(-0.0527615 -0.117719 -6.93742e-21)
(0.143958 0.0170359 3.13802e-20)
(0.456219 -0.0178426 1.4983e-20)
(-0.0474728 -0.111367 1.91752e-20)
(-0.155892 -0.0010155 8.13369e-20)
(0.860393 0.00842192 2.52973e-23)
(-0.160681 0.00186045 -4.73352e-20)
(-0.0396294 -0.092667 -1.30664e-20)
(-0.0460046 -0.0290297 -3.16844e-21)
(0.858627 -0.0227054 1.91237e-24)
(-0.064715 0.097772 4.49938e-21)
(-0.0415047 0.000181332 -1.28517e-20)
(0.325018 -0.0603475 3.1788e-20)
(0.918717 -0.0208184 1.28297e-23)
(0.837246 0.00831517 9.31817e-23)
(0.0525608 0.00144143 3.09867e-20)
(-0.0564143 -0.122088 1.45727e-20)
(-0.0172985 -0.0856493 1.80648e-21)
(0.321281 0.0501204 -1.43197e-20)
(-0.0513264 0.0956234 5.64683e-21)
(0.974997 -0.0114328 1.60333e-23)
(-0.0556781 0.087672 8.82033e-21)
(-0.0466946 0.108557 -8.11012e-21)
(0.021828 0.063926 -2.30448e-20)
(0.813639 -0.00913801 -1.63582e-22)
(0.532301 -0.0279846 -1.24988e-20)
(0.80011 0.0072337 -1.84322e-23)
(-0.136373 -0.00761284 -1.94828e-20)
(-0.0783215 -0.0261828 1.16363e-20)
(-0.00223217 -0.070585 -6.13713e-22)
(0.56984 0.0159985 4.36829e-22)
(0.339614 -0.029525 5.23437e-20)
(0.818895 -0.0466946 -1.78117e-22)
(-0.0497871 -0.0670329 9.68929e-21)
(0.738439 -0.000318438 1.88484e-23)
(-0.000684469 -0.075033 -4.68119e-21)
(-0.139827 0.0132412 -2.27431e-21)
(-0.071732 -0.0149788 -1.20989e-20)
(0.587982 0.0137386 -2.22922e-22)
(0.722129 0.0111085 2.40059e-22)
(-0.12304 -0.00960498 1.07903e-20)
(-0.0896088 0.0233971 -1.32938e-21)
(0.0150127 0.0699087 -1.32841e-20)
(0.449428 -0.0402969 6.75406e-21)
(1.01252 0.00730206 -4.35061e-23)
(1.01323 -0.00721473 2.12139e-23)
(-0.0698764 0.0672133 -4.85124e-21)
(0.74035 0.00189174 -3.99384e-23)
(-0.0556084 -0.0812138 6.07962e-21)
(-0.128014 -0.014828 9.21387e-21)
(0.365778 -0.0157835 -4.18733e-21)
(-0.0964827 -0.0114403 1.64449e-20)
(0.121894 -0.0298736 -6.98638e-21)
(-0.0618702 0.10954 2.06687e-20)
(-0.056108 -0.053464 -1.0819e-20)
(-0.0210385 0.0418561 2.16257e-20)
(0.892279 0.00859264 5.4249e-23)
(0.685299 -0.00959699 -2.16579e-23)
(0.969762 0.00903421 -3.06577e-23)
(0.476528 0.0261586 -7.5302e-21)
(-0.0965816 -0.0393131 3.61594e-21)
(0.0662901 0.0358348 -1.22633e-20)
(0.965901 0.00753915 -4.44203e-23)
(0.947274 -0.0887049 -7.10162e-21)
(0.886485 -0.0438071 -8.93392e-22)
(-0.0538817 0.119 1.07103e-20)
(0.838547 -0.00764108 1.76439e-24)
(0.0252097 -0.0569913 -3.13175e-21)
(0.760009 -0.00652357 7.18675e-23)
(-0.0526586 -0.119284 6.74559e-21)
(0.992653 0.0080981 3.31721e-23)
(0.70145 -0.0127013 -4.75815e-23)
(-0.0469815 -0.0932175 1.91729e-20)
(-0.0306614 0.0668132 -1.38312e-20)
(0.751137 0.00206802 8.50253e-24)
(0.754436 -0.0040879 4.59304e-23)
(-0.0517679 0.0773651 -3.47757e-21)
(0.0492608 -0.00795686 -2.2046e-20)
(-0.117798 0.0162996 -3.68502e-21)
(0.718186 -0.0127739 -1.1862e-22)
(-0.085799 0.0362497 6.90813e-21)
(0.65166 -0.0361513 -1.22498e-20)
(0.742767 -0.00255545 -1.13965e-23)
(1.02612 -0.0641539 1.50941e-20)
(1.01564 -0.00718462 3.68862e-23)
(1.01414 0.00697876 -9.73352e-25)
(0.760934 -0.00316506 -1.25727e-23)
(0.785887 -0.0059777 -2.35171e-22)
(-0.116228 -0.0174092 -6.38645e-21)
(0.613993 0.0311723 -2.24887e-23)
(-0.0978844 -0.0255334 -1.35168e-20)
(0.941412 -0.0397185 -2.72612e-21)
(0.688906 0.0109443 7.45826e-23)
(-0.0361379 -0.0839772 3.08783e-20)
(-0.0528864 -0.0852008 7.58031e-21)
(-0.0386331 0.0149199 9.52522e-21)
(-0.0533504 0.113189 6.66828e-21)
(0.551019 0.0395579 -9.0517e-22)
(0.999958 -0.0075833 -8.91731e-24)
(0.933098 -0.0336309 -2.72908e-22)
(0.736693 -0.000628048 6.56088e-23)
(-0.0253735 -0.00904778 -1.80504e-20)
(-0.159908 0.000624697 4.84225e-20)
(-0.0744307 0.0446759 2.66056e-22)
(-0.053265 0.0216437 -7.73443e-21)
(0.123102 0.0480001 1.95331e-20)
(0.692206 0.0365967 1.16336e-20)
(0.799989 -0.00587407 1.71637e-24)
(-0.0351516 0.0770533 1.96674e-20)
(-0.0539493 -0.101373 9.82246e-22)
(-0.0297815 0.0812179 -1.62301e-20)
(0.548471 -0.0232235 -1.05013e-20)
(1.01594 0.00632093 2.3482e-23)
(0.85271 0.0311388 9.82952e-21)
(0.0279339 -0.0641657 1.14768e-20)
(0.331384 0.0936513 -1.55055e-20)
(0.0792613 -0.00299469 -1.64238e-20)
(-0.136024 -0.00489312 1.74872e-20)
(0.438264 -0.0266162 -4.51148e-22)
(0.784713 0.00642906 5.8376e-23)
(0.960515 0.0918059 1.38488e-21)
(0.141111 -0.00816192 6.93057e-21)
(0.745451 0.0102138 8.50016e-23)
(0.923144 -0.00802863 5.68163e-24)
(-0.130093 -0.00190002 6.2286e-21)
(-0.046249 0.087045 6.58558e-21)
(0.650745 0.100673 5.97405e-20)
(0.109314 0.0132872 -6.41614e-21)
(-0.138097 -0.00700667 1.45965e-20)
(0.0106915 0.0329384 1.1608e-20)
(0.0524824 0.0310278 -2.59105e-20)
(0.898054 -0.00817679 4.7642e-24)
(0.638582 0.0184298 4.18411e-23)
(0.0122443 -0.0701006 -2.52093e-20)
(0.560276 0.00728045 3.28884e-22)
(0.853985 0.0125719 5.14157e-23)
(0.987445 -0.00902238 6.585e-23)
(0.74904 0.00132849 3.21889e-23)
(0.917586 0.0193956 -1.15669e-23)
(-0.0463601 -0.110167 4.3162e-21)
(-0.0219322 0.0266874 4.20956e-21)
(0.572481 0.0304124 -4.9469e-22)
(0.051283 -0.0225234 -1.56133e-20)
(-0.0564683 0.0966511 -2.1244e-20)
(0.114632 0.0300137 -5.01432e-21)
(-0.149422 -0.00281891 -8.27634e-21)
(-0.0174375 -0.0839665 -6.69966e-21)
(0.787764 -0.00911693 3.42516e-22)
(-0.162817 0.00383153 -2.32651e-20)
(0.778911 0.00639142 -3.64542e-23)
(-0.0915656 0.0306778 -6.04867e-21)
(-0.122003 0.00247808 3.04536e-21)
(0.944398 -0.0107925 -5.65774e-23)
(0.0218381 0.035528 -1.60913e-20)
(0.742445 0.00306612 -2.25894e-22)
(1.0098 0.0067489 -1.18349e-22)
(0.0131545 -0.0693564 -1.636e-21)
(0.00327038 0.0301002 4.93836e-21)
(0.343212 0.0691736 2.30825e-21)
(-0.0681773 0.0635017 1.29991e-20)
(0.872886 -0.00915665 1.92073e-22)
(0.774216 -0.0895979 -6.70434e-21)
(-0.148401 0.00440649 -5.26266e-20)
(-0.0626561 -0.102287 2.27099e-20)
(-0.0388401 -0.0284761 -7.24792e-21)
(0.778423 0.00645647 5.9538e-23)
(0.786618 -0.00561013 -1.5666e-23)
(0.835517 0.00863215 3.23911e-23)
(-0.031365 -0.0212084 3.50771e-21)
(1.01117 0.00756631 -1.57658e-23)
(0.338619 -0.0108589 -4.05611e-21)
(0.808915 0.00852125 -4.48694e-23)
(0.817997 -0.0068247 -1.29921e-23)
(-0.168318 -0.00106942 -3.85485e-21)
(-0.0394036 0.0907661 7.90231e-21)
(-0.0319626 0.0908547 -2.22782e-20)
(0.101899 -0.0611471 7.38117e-21)
(0.957935 -0.00992445 -5.12597e-23)
(-0.0411493 0.0810163 -6.17779e-21)
(0.842022 -0.00920246 -2.79221e-22)
(0.88753 0.0336458 9.79813e-23)
(-0.13547 0.00966784 2.23591e-21)
(-0.162462 -3.10542e-05 -2.10717e-20)
(-0.162974 0.00278045 -8.42995e-21)
(0.382819 0.0306872 -3.10335e-21)
(0.561632 0.0275831 -9.27015e-24)
(0.531014 0.0336927 -1.07797e-20)
(0.760879 -0.00341974 2.21518e-23)
(0.754575 0.00345477 -2.52935e-23)
(0.276519 0.0238228 -3.69561e-21)
(0.0217258 0.06152 -9.64103e-21)
(0.989717 0.00797414 -1.80591e-23)
(0.163173 -0.0132301 2.27752e-20)
(-0.0557063 0.0877422 6.94899e-21)
(-0.156481 0.00350083 -1.67018e-20)
(-0.0721237 0.0656629 -7.48827e-21)
(-0.107389 0.0161335 6.7771e-20)
(0.984189 -0.00964983 -2.69491e-22)
(0.071641 0.00643352 -7.41114e-21)
(0.973418 -0.00774598 5.23413e-24)
(0.748031 0.00343104 1.13702e-22)
(0.460364 -0.0543226 1.86666e-20)
(-0.0526075 0.124477 -1.37245e-20)
(0.0409892 0.0597806 2.10474e-21)
(-0.12973 0.00237718 -1.53198e-20)
(-0.0948112 0.0461693 1.20217e-20)
(-0.107995 -0.0341554 1.31098e-20)
(0.51973 -0.038228 1.69655e-21)
(0.960474 0.0175553 3.48594e-23)
(0.770812 -0.00768787 -7.14256e-23)
(0.0306709 0.0621811 -2.3714e-20)
(-0.16382 -0.00254697 1.11436e-20)
(0.0550183 -0.0532332 -1.81766e-20)
(-0.0450705 -0.117458 3.09467e-20)
(-0.167977 0.000253493 1.043e-20)
(0.870943 0.00888844 -4.85287e-23)
(1.00975 0.00768949 1.00049e-24)
(-0.16598 -0.00115105 4.7889e-21)
(0.316407 -0.00694719 -9.7477e-21)
(0.284444 -0.00103173 5.26635e-21)
(0.747163 0.011827 1.7577e-22)
(-0.0333721 -0.100516 2.58356e-20)
(0.877405 -0.00970372 5.49265e-24)
(0.599636 0.0176163 -3.42635e-23)
(-0.0175896 -0.080019 1.17013e-20)
(1.00754 0.00734755 -2.54583e-23)
(0.850006 -0.0369077 5.72694e-21)
(0.744995 -0.033213 -5.93426e-21)
(-0.0303378 0.0948366 -2.47222e-20)
(0.980598 -0.0723541 1.19085e-22)
(-0.0528083 0.116947 -3.58143e-21)
(-0.0513634 -0.111299 1.02113e-21)
(0.210473 -0.00492299 -5.38307e-21)
(0.114835 -0.048582 2.42486e-20)
(1.07417 0.0438848 -1.49484e-20)
(0.900077 0.0255872 3.59484e-24)
(0.959553 0.0182631 1.42274e-23)
(0.850635 -0.00948665 1.31852e-22)
(0.00268601 -0.0755286 1.81921e-20)
(-0.0750496 0.00200583 -8.56693e-20)
(-0.119285 -0.0265416 -1.58886e-20)
(0.249968 0.00308084 6.38947e-21)
(0.882244 -0.00899995 -9.46262e-23)
(1.05476 0.0616314 1.58046e-20)
(1.05146 -0.0585665 -2.62052e-21)
(0.933833 -0.045752 7.21485e-23)
(1.04497 -0.0672151 -7.14986e-21)
(0.353679 0.0282295 1.03813e-21)
(0.936071 -0.0139032 4.41201e-22)
(0.824103 -0.0096203 8.08326e-23)
(0.926219 0.0124978 7.76472e-23)
(0.909198 -0.0113176 5.41311e-23)
(0.745714 0.000270686 3.30742e-23)
(0.0197996 -0.0450454 -2.80594e-21)
(0.899862 -0.0129637 -1.81603e-22)
(-0.0861001 0.0519517 -4.25705e-21)
(0.507981 0.0794987 -1.63951e-20)
(0.713413 -0.0107296 -6.15071e-22)
(0.0527976 0.0549353 -1.24163e-20)
(0.738554 0.00148721 -1.23125e-23)
(0.78262 0.007564 -2.85661e-22)
(-0.0947315 -0.00114507 1.79443e-21)
(-0.13465 0.00559517 -2.17169e-21)
(0.0386984 -0.0384973 -9.84133e-21)
(0.770658 -0.00827296 2.44095e-23)
(0.707554 0.0128436 3.31622e-24)
(-0.051535 -0.0769024 -5.39503e-23)
(-0.0484268 0.0967255 5.35908e-22)
(0.983986 0.0073844 6.41156e-23)
(-0.048749 0.113112 -2.2294e-20)
(0.963733 0.0153051 -1.45365e-23)
(1.00961 -0.00780722 3.86493e-23)
(0.814501 -0.0416642 2.53677e-21)
(0.915683 0.021007 -6.39943e-24)
(0.826953 0.00827145 1.65233e-22)
(0.917604 -0.0778903 6.95743e-21)
(0.0150969 -0.0377215 -1.76551e-21)
(0.00567337 -0.0578922 -4.56886e-20)
(0.209732 -0.0133156 8.4724e-21)
(-0.0651081 -0.0570684 8.4197e-21)
(-0.0550108 0.0197766 1.43081e-20)
(1.00703 -0.0083896 3.34974e-23)
(0.75446 -0.00207123 -9.28049e-25)
(0.929465 -0.0480004 5.49234e-22)
(0.327999 0.0206998 8.5958e-21)
(-0.00941031 0.0777026 1.10676e-20)
(0.669053 -0.00584501 3.30196e-22)
(0.985421 0.00925173 5.32993e-25)
(0.978945 -0.00942011 1.02882e-23)
(-0.065565 -0.0422799 -1.17224e-20)
(0.976145 -0.00932951 3.22424e-22)
(1.08204 -0.0374783 -6.72942e-21)
(0.424866 0.0217748 1.20593e-21)
(0.653805 -0.10008 -4.00303e-21)
(0.468455 -0.0291552 -8.51164e-22)
(-0.058685 -0.089778 -3.97058e-21)
(0.669683 -0.00718487 2.97524e-22)
(1.01045 -0.00713412 -6.20668e-23)
(0.871937 -0.00854889 2.99413e-22)
(0.603336 -0.0149508 3.37646e-23)
(0.759422 0.00385225 2.00985e-23)
(0.144443 -0.00993272 8.59211e-21)
(0.851136 -0.0118211 -1.83703e-22)
(-0.0237306 0.00627789 -3.60655e-21)
(0.599071 0.0351022 -9.27668e-21)
(-0.0598095 0.0299819 -1.08169e-21)
(0.633624 0.085827 -4.30318e-22)
(-0.0626729 0.0494169 -1.09119e-21)
(-0.041824 0.0157124 -2.21816e-20)
(0.847408 -0.0321868 -1.93746e-21)
(0.743141 0.0494919 1.13246e-21)
(-0.132625 -0.00604354 7.55395e-20)
(0.382146 0.0904023 -1.0362e-20)
(0.209049 -0.0663388 -1.86925e-20)
(0.0254013 0.0369768 -5.16664e-21)
(-0.00454287 0.0710177 3.06449e-20)
(0.594313 0.104428 2.45311e-20)
(0.118094 0.0228661 -2.51225e-20)
(0.258166 0.0780746 1.87168e-20)
(0.808643 0.0108937 -1.85391e-22)
(0.863001 -0.0106719 -3.10157e-23)
(-0.021153 -0.0170826 2.22967e-20)
(-0.0549533 -0.101762 -2.95162e-21)
(-0.0827678 -0.0140192 4.04426e-20)
(0.713079 0.0426342 1.09637e-23)
(0.210221 0.0780612 -3.17525e-20)
(0.480695 0.0121922 9.72411e-23)
(0.97991 -0.0283164 -3.71584e-23)
(0.612162 0.00712406 7.62791e-22)
(0.989489 -0.0187012 1.03222e-23)
(0.977858 -0.0717199 2.69286e-21)
(0.929132 0.0145585 3.32308e-23)
(0.899089 -0.0127149 -1.07461e-22)
(-0.14081 0.0131284 2.54298e-20)
(0.807255 -0.00906519 2.2413e-23)
(0.750005 0.00208507 5.7448e-23)
(0.401859 -0.0147317 3.07172e-20)
(0.484431 0.103236 6.96501e-21)
(0.929425 -0.0807776 2.38985e-21)
(1.00653 -0.00900618 2.45948e-23)
(0.488453 0.0284505 -4.32916e-22)
(0.0356206 -0.0504597 -5.59028e-21)
(0.603094 0.0272152 -3.40852e-22)
(0.766477 -0.00640519 -1.18335e-22)
(0.962111 0.0164379 -6.81768e-24)
(0.7397 -0.10656 -1.45058e-20)
(0.517012 0.0730355 2.02772e-21)
(0.837633 -0.0984905 -4.4661e-21)
(0.966997 0.013953 -5.47917e-24)
(0.641902 0.0827475 -3.55111e-23)
(0.176989 0.0151208 -1.889e-21)
(0.730288 0.00315221 7.00535e-23)
(0.743302 0.00126825 -4.25763e-23)
(0.080425 0.00664931 -8.54482e-21)
(-0.103818 -0.0369772 9.20101e-21)
(-0.036365 -0.100426 -3.27535e-20)
(0.321577 -0.0187062 9.5669e-21)
(0.0459091 -0.0546475 -9.91802e-23)
(0.763859 0.0839206 9.85469e-22)
(-0.0142146 0.0707333 2.08018e-20)
(0.479223 0.0452876 -4.3865e-22)
(0.674393 0.0324266 -6.94751e-23)
(0.90437 0.0287612 1.28313e-22)
(0.71019 0.0266526 -1.28282e-23)
(0.265496 0.0915491 1.26375e-20)
(0.776637 -0.0270499 -2.30625e-25)
(1.00408 -0.00777886 -9.24204e-23)
(0.990684 -0.0177274 -2.61618e-23)
(0.115446 0.0614796 1.76512e-20)
(-0.171071 0.000895432 3.11016e-20)
(0.54445 -0.0730213 -1.14338e-21)
(0.979135 -0.069823 -6.20837e-22)
(0.451011 0.0137162 -3.72151e-22)
(0.624364 -0.0530088 4.10374e-22)
(0.412293 0.010594 -2.73276e-22)
(0.455943 0.00876754 4.80535e-22)
(0.188017 0.0132197 1.19902e-20)
(0.483829 0.00769642 -2.42722e-22)
(0.125073 0.014017 1.69526e-20)
(0.668589 -0.0528533 1.22502e-21)
(0.772972 0.0280843 -6.40397e-23)
(0.57745 -0.0574838 -4.61791e-21)
(0.519396 0.00348867 -9.76299e-23)
(0.771694 0.0143252 3.60451e-22)
(0.543636 0.00562507 1.06669e-22)
(0.772599 0.0271511 7.09822e-24)
(0.501205 0.0791729 -4.73061e-21)
(0.867985 0.019145 1.63321e-23)
(0.56707 0.00248407 -6.11236e-22)
(0.38702 0.0572671 -7.03852e-21)
(0.647577 0.0802577 1.41773e-21)
(0.59522 0.00543926 -6.06849e-22)
(0.789384 -0.0167769 7.01119e-23)
(0.422208 0.0046195 6.33818e-22)
(0.376875 0.000231599 3.18069e-22)
(0.332773 -0.00237622 5.44137e-22)
(0.269085 0.00651983 -5.73735e-21)
(0.212733 0.00984345 -6.95868e-21)
(0.463913 0.00239161 -3.26357e-22)
(0.142884 0.0016668 -1.43029e-20)
(0.490705 0.00212313 1.63514e-23)
(0.635909 -0.0577593 8.0891e-22)
(0.528976 0.000268124 -9.36603e-24)
(0.700783 -0.0523229 -1.63215e-22)
(0.547824 0.00226439 7.83736e-23)
(0.658477 -0.0199194 -3.45406e-23)
(0.71526 -0.0247138 5.67807e-24)
(0.576535 0.00126501 -8.53266e-23)
(0.610786 0.00425638 -6.21005e-22)
(0.598314 0.00103381 2.84553e-22)
(0.955331 -0.0208222 -1.18898e-22)
(0.814362 0.0186602 -6.79509e-24)
(-0.163213 -0.000109805 -2.7065e-20)
(0.953494 -0.00898282 -6.0331e-23)
(0.817737 -0.0173967 -1.76438e-22)
(0.809147 0.0202021 8.10948e-23)
(0.61389 0.00104033 5.78246e-22)
(0.819367 -0.00784558 2.55797e-22)
(0.555211 -0.0398664 1.9875e-21)
(0.625263 0.00257281 2.21992e-23)
(0.390178 0.0155034 1.36281e-21)
(0.341651 0.0138399 4.20117e-22)
(0.508626 0.0120583 2.86713e-22)
(0.633703 -0.000854349 -2.89825e-22)
(0.812025 0.0180404 -3.36623e-24)
(0.734882 -0.00426242 -5.73759e-23)
(0.837339 -0.0688744 -1.4972e-21)
(0.858445 -0.0546275 -9.04793e-22)
(0.0799943 -0.0199677 3.11463e-20)
(0.943652 -0.0117011 -1.8377e-22)
(0.429959 -0.018162 -3.18006e-22)
(0.650073 0.000581875 -2.63299e-22)
(0.608123 -0.0140281 -4.90544e-23)
(0.752615 -0.00625161 -1.88168e-22)
(0.818817 0.0177113 2.40339e-23)
(0.267999 0.0319269 -1.05339e-22)
(0.654005 0.0193549 -4.84343e-22)
(0.00368762 0.00387459 -4.77942e-21)
(0.642317 0.00589827 1.13343e-22)
(0.898069 -0.00880205 -7.1821e-23)
(0.83208 0.0119576 7.0701e-23)
(1.00127 -0.00725958 -1.33344e-22)
(0.661906 0.00176121 -6.37462e-23)
(0.698054 0.035849 1.06536e-22)
(-0.0542247 0.0831615 -1.53798e-20)
(0.975846 -0.008883 1.88001e-22)
(0.659009 0.0059824 -5.37371e-24)
(0.107795 -0.0050033 8.91748e-21)
(0.664651 0.00111291 3.52978e-22)
(0.814486 0.0119981 -1.76329e-23)
(0.782028 0.00990127 1.35911e-22)
(0.387838 -0.0251562 -4.05529e-20)
(0.787093 0.0125586 9.79284e-23)
(1.01548 -0.00705999 -3.65684e-23)
(0.513419 0.0758097 2.46802e-21)
(0.812329 0.0189811 -3.58057e-23)
(0.0132937 0.0580122 4.77454e-21)
(0.653854 -0.0646151 -3.89462e-21)
(0.694102 -0.0562336 -3.96054e-21)
(0.242187 0.0110214 -3.72241e-21)
(0.294713 0.00396104 -6.63025e-21)
(0.16616 -0.0179746 3.53746e-20)
(0.760517 0.0147464 -2.13318e-22)
(0.47587 -0.0016846 7.43577e-22)
(0.490298 0.0267996 -2.6953e-22)
(0.405417 0.0313739 2.10064e-21)
(0.502396 -0.000348168 2.32817e-22)
(0.844152 0.0465225 -3.92699e-22)
(0.557703 0.000836159 2.0686e-22)
(0.346129 0.0895482 -3.56063e-20)
(0.584357 0.00443895 3.55713e-23)
(0.679953 0.000901434 1.56447e-22)
(0.222578 -0.0017652 -5.21382e-21)
(0.278784 -0.00673665 3.22563e-21)
(0.308466 0.0455227 8.73093e-21)
(-0.104115 -0.0163734 -1.6965e-20)
(0.72924 -0.0503234 1.97703e-21)
(0.805634 0.0120204 4.92204e-23)
(0.223571 0.0782348 1.78546e-20)
(0.695881 0.0568256 -6.56727e-22)
(0.715033 0.0238684 -2.8279e-22)
(0.605781 -0.00141051 6.02914e-23)
(0.552629 -0.00252784 -9.24955e-24)
(-0.0450126 0.0456271 3.32945e-21)
(0.901228 0.00912426 3.20452e-23)
(0.656076 -0.0462873 -1.37514e-21)
(0.675661 0.00411209 8.40901e-23)
(0.920262 0.0172311 -7.79521e-24)
(0.650642 0.0113033 -3.16936e-22)
(0.679014 0.00621265 -2.21949e-22)
(0.677167 0.0024589 -3.0084e-22)
(0.621587 -0.00205818 -5.91411e-22)
(0.830085 -0.0184925 -2.61452e-23)
(0.719785 -0.0234876 3.61007e-23)
(0.747809 -0.0141478 1.30794e-22)
(0.656117 0.00190721 2.1274e-22)
(0.822131 -0.0166785 -1.1352e-22)
(0.00517844 0.0461019 1.73252e-20)
(0.544962 0.016762 7.55703e-23)
(0.803501 -0.0107019 -3.09221e-22)
(0.617112 0.0141663 1.79463e-22)
(0.636585 0.0108181 3.97875e-22)
(0.852219 -0.017206 1.2313e-22)
(0.167484 -0.028104 -1.53221e-20)
(0.675847 0.0445801 2.38209e-22)
(0.586411 0.0535202 -4.95712e-22)
(0.742957 0.0356253 1.34749e-22)
(0.759121 0.0153885 2.72294e-22)
(0.819493 0.012608 -3.32614e-22)
(0.810034 0.017718 1.61029e-23)
(0.774282 -0.0154798 -4.93467e-23)
(0.377635 -0.09387 -5.59592e-21)
(0.73742 -0.0679848 8.3575e-21)
(0.279837 -0.023035 -1.95981e-21)
(0.821056 -0.0330454 1.62204e-22)
(0.685275 0.00368896 1.83768e-22)
(0.510309 -0.0121055 1.68898e-22)
(-0.0435555 0.105053 8.78567e-21)
(0.647347 0.0451693 -4.25612e-22)
(0.977697 0.0306614 -2.57348e-22)
(0.973818 0.0469437 3.66242e-22)
(0.997132 0.012708 3.69368e-24)
(0.991923 0.0163194 -3.18751e-23)
(0.976496 -0.055226 -2.36922e-21)
(0.988301 -0.0196376 8.12988e-23)
(0.988507 0.0192086 1.30093e-25)
(1.00506 0.00995209 2.0117e-23)
(0.981638 -0.026817 8.43726e-23)
(1.00101 0.0114407 -3.77852e-23)
(0.993179 -0.0149418 -6.08308e-23)
(0.998764 0.0120753 2.74539e-23)
(0.999774 0.00950074 1.53311e-22)
(1.00741 0.0092087 -2.14992e-24)
(0.985106 0.0205019 -3.13941e-23)
(0.978668 -0.0302335 9.41093e-23)
(0.992326 -0.0167844 -4.51744e-23)
(0.990316 0.0178431 -4.06487e-23)
(0.981765 -0.0666377 1.71701e-21)
(0.665153 0.00935984 1.36713e-22)
(0.630736 -0.00772421 1.36957e-22)
(0.112957 0.00644176 -2.54823e-20)
(0.184658 -0.0135197 -1.06965e-20)
(1.00641 -0.00794551 1.50122e-22)
(0.95069 0.00818459 5.06708e-23)
(0.728187 0.0125041 -8.83723e-22)
(0.681815 -0.0732867 1.12262e-21)
(0.34875 -0.000567559 1.81389e-22)
(0.571166 0.0552013 -3.3428e-22)
(0.392296 -0.00129453 -3.81869e-22)
(0.703979 0.0250968 -1.30419e-23)
(0.980247 0.026805 -4.72256e-22)
(0.977544 0.0292546 -4.52742e-23)
(0.97761 0.0443807 -7.17291e-22)