/*--------------------------------*- C++ -*----------------------------------*\
  =========                 |
  \\      /  F ield         | OpenFOAM: The Open Source CFD Toolbox
   \\    /   O peration     | Website:  https://openfoam.org
    \\  /    A nd           | Version:  10
     \\/     M anipulation  |
\*---------------------------------------------------------------------------*/
FoamFile
{
    format      ascii;
    class       volScalarField;
    location    "850";
    object      epsilon;
}
// * * * * * * * * * * * * * * * * * * * * * * * * * * * * * * * * * * * * * //

dimensions      [0 2 -3 0 0 0 0];

internalField   nonuniform List<scalar> 
23845
(
0.0424338
0.0595232
0.0574825
0.0138843
0.0410806
0.00242172
0.076472
0.0108095
0.00175756
0.0257985
0.0239403
0.00205775
0.00337769
0.00210844
0.121918
0.0123007
0.00639817
0.00879612
0.00443792
0.0031367
0.0337242
0.0210362
0.0278154
0.00176413
0.0261415
0.00118867
0.0517983
0.00286676
0.0104176
0.00309682
0.0154475
0.0245392
0.135261
0.00936553
0.00207244
0.00256267
0.0207022
0.00208323
0.00218016
0.00195778
0.00405086
0.00610678
0.00282634
0.00592864
0.000847592
0.00405394
0.0283075
0.0142058
0.0226939
0.0109301
0.0144886
0.0468234
0.0276503
0.0025195
0.0238079
0.00557428
0.0548561
0.0111289
0.0428921
0.0354952
0.0105623
0.00635192
0.0106527
0.012712
0.00155638
0.00345696
0.0547549
0.000707978
0.000736981
0.00558398
0.0105523
0.0420207
0.00155694
0.105683
0.00131515
0.11803
0.00206301
0.0022099
0.0113803
0.00956656
0.0394205
0.0961531
0.0598342
0.0111842
0.0645853
0.00208712
0.0805699
0.0290278
0.00151541
0.00794504
0.014155
0.00527051
0.0110629
0.00257478
0.0114438
0.0124699
0.00565266
0.016029
0.00128192
0.0324967
0.0066505
0.0594398
0.0507707
0.0136956
0.0129246
0.011538
0.0024354
0.00113774
0.047012
0.00578738
0.021365
0.00211375
0.0894693
0.0214474
0.00268185
0.0239172
0.00143452
0.0152311
0.0105612
0.0129046
0.00215657
0.017558
0.00566712
0.0215483
0.0632154
0.00131433
0.0104965
0.0108091
0.0401591
0.0311628
0.0567388
0.0386685
0.0277233
0.00224423
0.00850332
0.0485081
0.0129486
0.00203717
0.04567
0.00222146
0.0118621
0.00571693
0.00220978
0.00639253
0.00887977
0.00541521
0.0187954
0.0856295
0.0190272
0.00931305
0.127618
0.00231611
0.0694519
0.00276564
0.0829631
0.0167534
0.0471038
0.00227648
0.0765365
0.0114165
0.00719989
0.118719
0.0118005
0.0016167
0.00211006
0.0119826
0.00228431
0.0160365
0.00300342
0.00533919
0.0022831
0.0150522
0.00172215
0.0181108
0.00162726
0.0111824
0.00608348
0.022154
0.00109215
0.00224471
0.0325999
0.0286048
0.103241
0.0188594
0.0109569
0.00444906
0.00606716
0.0110771
0.0105451
0.00586611
0.0118236
0.00219266
0.00215684
0.00237912
0.00788563
0.0020945
0.0123401
0.010761
0.0214378
0.022823
0.0136828
0.00230409
0.0168642
0.0343439
0.0109938
0.0116111
0.0543876
0.0023127
0.0509202
0.00989241
0.0103367
0.0145996
0.00758458
0.00304289
0.0186539
0.022125
0.0291303
0.0066842
0.0176939
0.0529194
0.00181203
0.113266
0.0124457
0.0137644
0.00553094
0.126442
0.0136468
0.00221847
0.00241548
0.00419291
0.00241831
0.0201756
0.00214618
0.000831457
0.0420438
0.0103142
0.0014882
0.0140326
0.00175411
0.0167014
0.0264669
0.0171872
0.0111518
0.0402198
0.0165083
0.0117328
0.00239102
0.000716397
0.0113406
0.115712
0.00429998
0.00221819
0.0142848
0.00260242
0.101407
0.0137466
0.0154706
0.01255
0.00273618
0.00190656
0.0331401
0.00229865
0.010475
0.0207102
0.0180842
0.00169878
0.0111805
0.0259117
0.0199662
0.013252
0.002207
0.0137732
0.0157333
0.00226205
0.018751
0.00213246
0.012338
0.0023095
0.0203054
0.0264026
0.0122365
0.00245351
0.0131604
0.0106263
0.00213255
0.0134854
0.0187094
0.00223858
0.0113644
0.0952289
0.0111725
0.0181059
0.012088
0.0123571
0.011259
0.00211127
0.0166798
0.00241332
0.0021166
0.0112054
0.0817006
0.117547
0.0103059
0.0131861
0.00237847
0.0139412
0.0138773
0.0152815
0.0062797
0.0114408
0.0162251
0.0631823
0.00454217
0.00230696
0.0327677
0.011415
0.015049
0.0296296
0.0135615
0.00203098
0.0144583
0.0153099
0.0267317
0.00312118
0.109085
0.00230724
0.0118011
0.0293131
0.0156278
0.00934837
0.0689075
0.0124276
0.013919
0.00227576
0.016081
0.0149325
0.0201968
0.00840977
0.00515952
0.0113212
0.0170303
0.0222438
0.021439
0.000903215
0.000881555
0.0237407
0.00225125
0.012461
0.0115862
0.111287
0.0193333
0.0554623
0.0108341
0.0132043
0.0281739
0.00213518
0.00486254
0.00165649
0.098463
0.0110138
0.0282472
0.00145321
0.0180504
0.00917203
0.0105376
0.0023014
0.0206884
0.00270479
0.010853
0.00115377
0.0057941
0.0142474
0.0253144
0.00205352
0.00235955
0.0136976
0.0305868
0.0165399
0.00531303
0.0143405
0.105659
0.00235658
0.0270493
0.000829573
0.000862627
0.00214751
0.00244001
0.0112254
0.0131195
0.0111606
0.0609928
0.00509885
0.0167653
0.0152284
0.0169996
0.0119036
0.0176346
0.00107258
0.0059615
0.00232153
0.0248613
0.0176464
0.0118156
0.0199503
0.0465065
0.108599
0.00226931
0.0199031
0.0114901
0.0123472
0.125498
0.000773836
0.085273
0.0223686
0.0506615
0.0363001
0.0213567
0.0167018
0.00228445
0.0218621
0.0949479
0.00390063
0.00188278
0.01146
0.0109341
0.0529339
0.0829833
0.0171831
0.0223028
0.0270821
0.00218686
0.00858679
0.0232636
0.008024
0.00374967
0.00137814
0.00204439
0.00429905
0.0104661
0.0209643
0.115798
0.0655484
0.0123067
0.0382136
0.0173543
0.0166073
0.00323258
0.0197479
0.0022946
0.0152663
0.0112575
0.0022321
0.0538826
0.00228737
0.000868416
0.0209136
0.0360529
0.0366489
0.0117244
0.00249407
0.0536611
0.0126309
0.012823
0.0331514
0.00243519
0.00228352
0.00244066
0.0193034
0.000950134
0.111739
0.00298512
0.0023295
0.01609
0.0111212
0.0146244
0.0390126
0.00190488
0.0167259
0.00279637
0.0075168
0.0234377
0.0197163
0.0148128
0.0199304
0.0132325
0.0931845
0.00219822
0.00210965
0.0611474
0.0199361
0.00118322
0.0793143
0.01244
0.0209558
0.0110874
0.0253677
0.00146117
0.033112
0.00137069
0.00228777
0.0742679
0.0127781
0.0259585
0.0235948
0.0114348
0.0114327
0.0186004
0.00308484
0.00283708
0.0222219
0.0145793
0.0349972
0.0198926
0.0152208
0.00228171
0.000986673
0.0185019
0.12005
0.0907104
0.00492254
0.0264413
0.00259025
0.00922667
0.0188152
0.00108994
0.0809678
0.105769
0.0132611
0.0305029
0.0116182
0.0104789
0.111635
0.0320114
0.0266599
0.00573869
0.00319031
0.00264254
0.0175353
0.0257335
0.0117431
0.0614387
0.00243602
0.0242104
0.0251305
0.0075869
0.0239827
0.0201923
0.00294307
0.002934
0.0027929
0.00270448
0.00210247
0.0209269
0.00311623
0.0109944
0.0664564
0.00492431
0.0314397
0.0022802
0.00268304
0.011392
0.0116803
0.0410036
0.00330266
0.00486117
0.0184828
0.0128861
0.00143347
0.0104379
0.00270839
0.00103712
0.081908
0.00459296
0.00241063
0.0146272
0.031465
0.0177383
0.0831264
0.0120468
0.0276382
0.0011711
0.00208376
0.0081182
0.0732389
0.0194069
0.0045222
0.00158636
0.00167436
0.0124522
0.00161484
0.0280297
0.120946
0.0509653
0.0165975
0.0113676
0.00485525
0.0009766
0.0025665
0.00840672
0.00208211
0.0433509
0.00293517
0.0261596
0.106991
0.017718
0.0325063
0.0127532
0.0269299
0.0882777
0.0157274
0.0236036
0.0502459
0.0557136
0.0313259
0.024097
0.0511927
0.0267245
0.0482062
0.00322834
0.00278347
0.0270949
0.0106008
0.0259758
0.0150593
0.0510439
0.0114469
0.0036762
0.00634745
0.00244569
0.0105546
0.00324101
0.00354115
0.0228663
0.00272413
0.00207249
0.10037
0.0513996
0.0148029
0.00121294
0.0160958
0.0400754
0.012267
0.0028984
0.00289284
0.0384975
0.0316368
0.0371297
0.00250201
0.0308348
0.053249
0.00262307
0.00217521
0.0251043
0.0119676
0.0113695
0.134664
0.0359751
0.024733
0.0145042
0.0220743
0.0124839
0.00613064
0.00992084
0.0518184
0.00888937
0.00122955
0.00234649
0.0376638
0.0166205
0.0299357
0.00940919
0.0126577
0.0212653
0.0136865
0.0118158
0.0227697
0.0107777
0.0249065
0.0197006
0.00909342
0.0246473
0.00918072
0.00503438
0.008436
0.00878353
0.0350194
0.00521172
0.00738006
0.0293762
0.0293556
0.00657426
0.0056057
0.0129009
0.0146735
0.0166518
0.0195101
0.0216781
0.0112046
0.0236271
0.0102051
0.023042
0.00873298
0.0180324
0.00808242
0.00862592
0.00910035
0.00701512
0.00599328
0.00626535
0.00359344
0.00576266
0.0177526
0.00176516
0.00532341
0.00618767
0.00572047
0.00248051
0.0179929
0.00541116
0.0154573
0.0174455
0.0104694
0.00508956
0.00561263
0.00276168
0.0165242
0.0124176
0.0263505
0.00216233
0.0147267
0.00459865
0.00804078
0.0029249
0.00505132
0.0231364
0.00838963
0.02596
0.00523126
0.00240755
0.00358174
0.00100059
0.00433445
0.0130515
0.0107986
0.00165439
0.00476488
0.0248281
0.00415256
0.00380158
0.00329053
0.0802782
0.00486421
0.00081435
0.0333371
0.00595952
0.0185838
0.0241971
0.0209375
0.0206574
0.0182345
0.0239244
0.00519913
0.0107887
0.0151572
0.0193853
0.00972781
0.0116324
0.0076877
0.057969
0.00688613
0.00374029
0.0208065
0.0190095
0.0267471
0.0173694
0.0165794
0.00344112
0.0442999
0.0197915
0.00871199
0.00604632
0.0079678
0.0155598
0.00214921
0.0175318
0.00402254
0.00381103
0.0059891
0.00423644
0.00386427
0.00560651
0.00540693
0.00876112
0.00522534
0.00448511
0.00506562
0.037334
0.0104353
0.00367178
0.00757989
0.00648507
0.00488111
0.0262797
0.016213
0.0220392
0.0118186
0.00540543
0.00351716
0.00544606
0.00495271
0.0528667
0.0217321
0.0208701
0.00955345
0.00372555
0.010799
0.0112778
0.017169
0.00400657
0.00586473
0.00176852
0.0022077
0.00716153
0.00255132
0.00257976
0.0012854
0.0034953
0.00152913
0.00206209
0.00165602
0.00150234
0.0011863
0.00283404
0.00384052
0.00224371
0.00238094
0.00862195
0.00518099
0.00599189
0.0377594
0.0226053
0.00111784
0.00162465
0.00469051
0.025732
0.0159781
0.0231277
0.0140981
0.00950633
0.00366157
0.00387245
0.00518964
0.0080036
0.00841806
0.00335245
0.00559803
0.00323133
0.00653453
0.0020298
0.100976
0.00213975
0.0184591
0.00622264
0.0276144
0.00344493
0.00462773
0.00646745
0.00455163
0.0132364
0.0104046
0.00488488
0.0151306
0.00285241
0.00322962
0.00188479
0.0018467
0.00151891
0.00141617
0.00477636
0.00490051
0.00368262
0.0184577
0.00371918
0.0178311
0.0192639
0.0185069
0.0051239
0.0141084
0.00471383
0.00172761
0.00676096
0.00136529
0.0110678
0.00335583
0.00146831
0.016327
0.00311429
0.00199442
0.0149811
0.00332661
0.00917574
0.0177514
0.0113053
0.00535275
0.00976144
0.00355685
0.00783042
0.00359415
0.0186007
0.0315551
0.0022025
0.00975196
0.0135792
0.0146295
0.0306601
0.0169167
0.00437929
0.00860718
0.00736672
0.00631354
0.135267
0.0174878
0.00573961
0.00500172
0.00290545
0.0225583
0.0050899
0.12705
0.00475884
0.00156468
0.0043133
0.00271291
0.00556182
0.00448712
0.00453116
0.0380897
0.00375269
0.0255834
0.00829155
0.0254828
0.00455633
0.0115685
0.0112796
0.0140447
0.0146811
0.00778642
0.0159813
0.00866883
0.0162443
0.0178284
0.0209293
0.00786939
0.0196518
0.0188056
0.0107378
0.0296696
0.0237058
0.0166991
0.0235397
0.00358595
0.0069653
0.00838312
0.00608875
0.00279309
0.00552568
0.0140094
0.00603617
0.00343742
0.0164285
0.0135413
0.0172602
0.00674328
0.032497
0.00331424
0.00504676
0.00542758
0.00491838
0.00936264
0.0020078
0.0167098
0.0313476
0.0542664
0.00305646
0.0045533
0.0201918
0.0233304
0.00322193
0.017966
0.012288
0.0113389
0.0157571
0.0171737
0.00605036
0.0186025
0.023807
0.021084
0.0277644
0.0282094
0.030016
0.00311885
0.00835493
0.0082417
0.00451196
0.0128468
0.0155911
0.00479156
0.0243602
0.00319524
0.10051
0.00329289
0.00325347
0.0108792
0.00311942
0.000790742
0.00218657
0.0015701
0.00483003
0.00389737
0.00431235
0.00525117
0.0260019
0.0108002
0.00354896
0.0113389
0.0078247
0.0249416
0.0221092
0.0506067
0.0197805
0.00357499
0.00602776
0.00507905
0.00312228
0.00111415
0.00272549
0.0324137
0.0260874
0.0087038
0.0129664
0.0101932
0.0145896
0.0166499
0.0218173
0.00434684
0.0301083
0.0217273
0.0262153
0.020061
0.0169513
0.0174066
0.00908977
0.0152981
0.0053152
0.0135827
0.0105291
0.00589394
0.00930243
0.00821194
0.00748612
0.00475214
0.00464742
0.0122203
0.0222943
0.0249573
0.00341218
0.0183124
0.0034238
0.00226616
0.00704521
0.00205038
0.0123241
0.00672241
0.00584244
0.00572262
0.00554276
0.00508709
0.0294135
0.00246697
0.00316817
0.0249971
0.00648914
0.00116761
0.0118607
0.0273935
0.0119372
0.01142
0.0508959
0.0047085
0.0154312
0.0181514
0.0202461
0.00975625
0.00333898
0.0172903
0.014622
0.0152674
0.0132064
0.0113967
0.0103767
0.0305624
0.00899956
0.0210373
0.00389465
0.00711399
0.034331
0.00613594
0.00851544
0.0453167
0.00638342
0.00105823
0.00239994
0.00562228
0.00294616
0.0042368
0.00351029
0.00328849
0.0273263
0.00517839
0.00464784
0.0296811
0.00300757
0.00325954
0.00328962
0.0461501
0.00484813
0.00416796
0.0273131
0.00221034
0.00131779
0.00368499
0.00422328
0.00400036
0.0183671
0.0023124
0.00410021
0.0129298
0.0226416
0.0263406
0.0186775
0.0145691
0.00351523
0.00774772
0.00537746
0.00617162
0.00355515
0.0273415
0.00830707
0.00308748
0.00308947
0.00960582
0.00842989
0.0261616
0.0119607
0.0035756
0.00470007
0.00321523
0.0246319
0.00760455
0.00164755
0.0229499
0.00380232
0.0121039
0.00338451
0.0023341
0.00292728
0.0106239
0.0048091
0.0038376
0.0209785
0.00339312
0.0258893
0.00797897
0.0026025
0.0167793
0.00446049
0.013858
0.014675
0.00976373
0.0187656
0.0108214
0.00327889
0.0122374
0.0115822
0.00268023
0.00645251
0.00421378
0.00362411
0.00861908
0.00122873
0.00170125
0.0107883
0.00147006
0.00297873
0.0137855
0.00137811
0.00247587
0.0178064
0.00229852
0.00183792
0.0155307
0.0347971
0.0301536
0.00214316
0.00325524
0.0211733
0.00227053
0.00244748
0.0367975
0.0207216
0.0367455
0.00796858
0.0321692
0.00449439
0.00677386
0.0132634
0.0181459
0.00350383
0.0158837
0.0426936
0.034383
0.00337719
0.00449364
0.0030677
0.00216541
0.00288367
0.00539265
0.00400985
0.130649
0.00890993
0.00485009
0.0244781
0.00758642
0.0206155
0.00317228
0.0274187
0.0049176
0.00764044
0.038046
0.00416144
0.010187
0.00279186
0.00352939
0.0535004
0.00279185
0.0468935
0.0159655
0.0240873
0.0162932
0.0120232
0.0319653
0.00394848
0.00338637
0.0262095
0.0041237
0.00430463
0.00421834
0.0379602
0.00275898
0.0030519
0.0039211
0.044459
0.00373288
0.00720167
0.00660899
0.0030101
0.0167522
0.00996542
0.012397
0.0431954
0.00202271
0.0162019
0.00380419
0.0121967
0.00271377
0.0478477
0.00827458
0.00755698
0.0034214
0.0110364
0.0155514
0.00680548
0.0199767
0.0237117
0.00295557
0.00696313
0.00272423
0.0216866
0.0199757
0.0023315
0.0104242
0.00809894
0.011564
0.0117138
0.0164318
0.00660722
0.0152187
0.0164246
0.0410369
0.0102958
0.0328153
0.0022078
0.0123107
0.0034433
0.00324188
0.0645867
0.0384712
0.022238
0.00231098
0.0357911
0.00778546
0.00631891
0.0411238
0.00664717
0.0463747
0.0103256
0.0470707
0.01564
0.00230517
0.106253
0.0144833
0.0137296
0.0116409
0.0401928
0.0461266
0.00291681
0.00428559
0.142566
0.0333684
0.00329901
0.0462178
0.0486728
0.00450344
0.0330833
0.00445152
0.0406839
0.00773543
0.0117073
0.00159706
0.0358944
0.0368691
0.00213228
0.121832
0.0430968
0.00197796
0.0122155
0.00359768
0.021789
0.033706
0.0111516
0.00289372
0.0316954
0.0316278
0.00774511
0.0450351
0.00718131
0.00419537
0.0118966
0.0116816
0.03963
0.00289793
0.0024127
0.0259968
0.008737
0.00442462
0.00724426
0.00282467
0.0138729
0.0127635
0.0340239
0.0629453
0.0449007
0.00299607
0.013959
0.00306153
0.0109177
0.0152731
0.00621012
0.0106104
0.00200947
0.043408
0.0184126
0.00313548
0.00292415
0.014278
0.0285639
0.0463391
0.0514949
0.0177082
0.0069044
0.0129636
0.00233014
0.00308783
0.0040211
0.000951891
0.00253665
0.00459179
0.0357343
0.126003
0.00569026
0.00375194
0.00980536
0.0397008
0.00459581
0.0153242
0.00792401
0.0112053
0.00579489
0.0117646
0.0274495
0.0284123
0.0151622
0.0028013
0.0161812
0.0814005
0.0114382
0.00393966
0.0112191
0.0267484
0.0151555
0.00268396
0.00304277
0.00748297
0.0124534
0.0138891
0.0124557
0.00200735
0.0135972
0.00404889
0.00269517
0.0579758
0.0129711
0.0337983
0.0145534
0.017774
0.0209079
0.00967305
0.00294193
0.0373682
0.00299174
0.0080135
0.00753447
0.0113088
0.0111508
0.0157714
0.00792356
0.0144502
0.0301949
0.0114347
0.0200789
0.00264764
0.0508043
0.00279278
0.00265564
0.026837
0.0249265
0.0105677
0.0465829
0.0126829
0.0032117
0.0250921
0.00281499
0.0291966
0.038535
0.00283209
0.0190318
0.0502634
0.00575219
0.0418657
0.0191649
0.033304
0.00801372
0.0469462
0.0433117
0.00288186
0.00973821
0.0431335
0.00291242
0.00253819
0.0368147
0.00240398
0.012687
0.0413319
0.0297281
0.0850164
0.001297
0.00213321
0.00225565
0.0537942
0.0026149
0.0030136
0.00786523
0.0148238
0.00385735
0.0024779
0.00266339
0.0131188
0.0129179
0.00261187
0.011261
0.00232798
0.0024343
0.002055
0.0751954
0.0236064
0.0025469
0.00293866
0.0207707
0.0319593
0.00329984
0.0164793
0.00250392
0.00236854
0.0327825
0.00298346
0.0278164
0.00223283
0.0174932
0.0108192
0.14257
0.0139956
0.098732
0.0661332
0.00253224
0.0461189
0.00316089
0.00277513
0.00669965
0.0232491
0.00292029
0.0138258
0.0230873
0.00420638
0.00396541
0.0157002
0.049344
0.0124885
0.0774035
0.0274661
0.030514
0.00265688
0.0423414
0.028362
0.00215398
0.0191154
0.00233322
0.00249149
0.0526325
0.0104252
0.0104807
0.0613152
0.0561417
0.00321786
0.0109754
0.00439956
0.0269652
0.00258386
0.0401826
0.0416754
0.0021701
0.0337206
0.00275269
0.00241423
0.00230396
0.0112652
0.0150061
0.104741
0.0349228
0.00368621
0.0591725
0.00252421
0.00246882
0.0021484
0.0327946
0.0112719
0.00233165
0.00708626
0.0623393
0.0147802
0.0167262
0.00272407
0.0111568
0.00368854
0.00410094
0.00539385
0.00108584
0.00522548
0.00179372
0.00237565
0.114284
0.00425287
0.00737262
0.00261158
0.0112629
0.0122058
0.0346713
0.00109337
0.0118625
0.0315457
0.00964193
0.00275523
0.033069
0.00200332
0.0275309
0.0128908
0.0115806
0.00753644
0.00388611
0.0612154
0.0491504
0.00251706
0.00387011
0.0547652
0.0420471
0.0214532
0.00538465
0.0313084
0.00440513
0.0117654
0.00761792
0.0125549
0.00243924
0.00372247
0.00708596
0.0141671
0.0111206
0.00252566
0.0119237
0.0143336
0.0132257
0.0128818
0.0198394
0.0306407
0.026628
0.00265592
0.0386395
0.0405579
0.0346598
0.00099268
0.0156913
0.0189492
0.0123002
0.0414539
0.00191402
0.00277542
0.0321057
0.108281
0.0165781
0.0597179
0.00166732
0.00240728
0.0049235
0.00375829
0.0131576
0.00361323
0.00242926
0.0243576
0.0272239
0.0674534
0.0599987
0.0997254
0.0498549
0.0530503
0.0209288
0.0140565
0.0367483
0.00654657
0.0331818
0.00154987
0.0192379
0.00211631
0.0603443
0.010987
0.0068655
0.0123186
0.00205284
0.00726403
0.00710977
0.00270805
0.0127949
0.00262879
0.0512446
0.0405658
0.00352799
0.0304112
0.0316968
0.0160209
0.0329606
0.147221
0.0109393
0.0111341
0.0639822
0.0107697
0.0239781
0.00122951
0.0606523
0.0013108
0.0143907
0.0122074
0.00427844
0.0386694
0.029886
0.0015949
0.0116526
0.00373025
0.0726687
0.0308342
0.00705359
0.0975732
0.0065242
0.0270267
0.0031465
0.00733792
0.0588314
0.0174516
0.00830121
0.00223214
0.00298334
0.0146353
0.00423038
0.0797165
0.0143285
0.00808168
0.0629265
0.00207869
0.0107248
0.0100175
0.00264573
0.0273962
0.062966
0.0357019
0.022891
0.0138305
0.0593956
0.00268147
0.0160203
0.00231521
0.00252703
0.0126703
0.00202978
0.0476547
0.0625461
0.0628661
0.016032
0.0184154
0.0289563
0.0105132
0.00268527
0.00898398
0.00297744
0.0135349
0.0068969
0.00443483
0.00910457
0.124926
0.00236099
0.0826151
0.045057
0.0125528
0.0116075
0.0425327
0.0335108
0.00216459
0.140925
0.00341104
0.00229516
0.00235134
0.133153
0.00366125
0.00230337
0.0030014
0.0354668
0.00439115
0.0111919
0.00727682
0.0111888
0.00844559
0.00283911
0.026169
0.00424059
0.00433335
0.0307683
0.00192811
0.010566
0.00368268
0.0409861
0.0133836
0.00215087
0.0216993
0.0334977
0.0642299
0.00422198
0.00260494
0.0871259
0.0646979
0.0812099
0.0579972
0.0703745
0.0541304
0.0021973
0.0235478
0.0571019
0.00589836
0.0121082
0.00203867
0.0106274
0.025529
0.0107155
0.0162078
0.0754232
0.0191409
0.00167953
0.00202146
0.00217353
0.0124428
0.0112181
0.0165622
0.0269632
0.0585775
0.00793254
0.00256803
0.0568016
0.104784
0.0113966
0.00477453
0.0204716
0.0040935
0.0112407
0.0265102
0.0124558
0.0107338
0.0103669
0.0141034
0.00462282
0.0977572
0.0126823
0.0596443
0.0403297
0.0107429
0.011735
0.0111609
0.0324012
0.00448675
0.0140593
0.0221013
0.00548354
0.0117265
0.00658488
0.0284486
0.0125716
0.0284201
0.0554269
0.0505033
0.00596485
0.0489685
0.103602
0.00209842
0.0503756
0.00280446
0.0112956
0.0424753
0.00230153
0.00393468
0.0327564
0.00257574
0.00422791
0.00247929
0.00180715
0.0494484
0.00225299
0.0409422
0.0129837
0.0281225
0.00243948
0.00563289
0.00341725
0.012635
0.00209796
0.0835797
0.0822939
0.0264684
0.030913
0.0144617
0.0131581
0.0322567
0.00548281
0.0718607
0.0703425
0.0276853
0.0074633
0.00214702
0.00227441
0.0259551
0.031699
0.00394198
0.00249428
0.00410244
0.0142084
0.00236482
0.00671788
0.0100688
0.014169
0.0167427
0.00687256
0.00521799
0.00285728
0.0613174
0.0059689
0.0118549
0.00819064
0.0103528
0.0097592
0.00786258
0.0104242
0.0113831
0.0470386
0.0270672
0.0186469
0.00990084
0.0440125
0.00227681
0.010343
0.00931262
0.00190722
0.00416024
0.0334149
0.0704372
0.00194027
0.0423675
0.0134476
0.0866975
0.0134879
0.0566122
0.00332616
0.0112968
0.0616074
0.0101428
0.0234852
0.0751646
0.0517035
0.00201923
0.0197737
0.00212634
0.0406338
0.0286857
0.0182271
0.00242236
0.00552896
0.0434122
0.00402642
0.00917495
0.00699894
0.0331121
0.00231898
0.0242707
0.00189499
0.0741723
0.00201503
0.00153702
0.00707622
0.00765491
0.0619582
0.0277794
0.00392022
0.00677023
0.00947807
0.00204523
0.0150627
0.00618666
0.0198801
0.0112414
0.0949881
0.00211485
0.00221361
0.0458808
0.0618657
0.0190537
0.144512
0.0552035
0.00390594
0.0260035
0.0787145
0.00252264
0.0639001
0.0237539
0.0362971
0.00694987
0.0710617
0.00207908
0.0490808
0.00211864
0.0463198
0.0114207
0.00221794
0.0905852
0.00275064
0.0433044
0.0376727
0.00596539
0.00278224
0.0988142
0.125178
0.00773042
0.0278523
0.0608655
0.00171847
0.0148831
0.00667602
0.0119088
0.00364614
0.00197812
0.0128497
0.0701233
0.00471021
0.0418611
0.0270274
0.00246446
0.00211748
0.00216043
0.00238323
0.00727688
0.0156678
0.0193164
0.0056869
0.0516342
0.0110375
0.00343871
0.00382706
0.00239033
0.0808958
0.0487806
0.00222985
0.00927356
0.0256228
0.0085204
0.0637474
0.0384836
0.0021502
0.00334647
0.0110751
0.00170919
0.00402442
0.0333605
0.0545721
0.00215815
0.00219771
0.0134068
0.0670057
0.0845959
0.00234484
0.00142325
0.108001
0.0142617
0.00152095
0.00219739
0.0531553
0.0465645
0.102816
0.00719816
0.0608205
0.0156581
0.115933
0.0636137
0.00235567
0.0374888
0.00234254
0.0169605
0.0026277
0.00293888
0.0104358
0.0152547
0.00896056
0.0253859
0.00131922
0.00721983
0.0138926
0.0398575
0.00599452
0.085868
0.0269565
0.0403135
0.00261676
0.0927741
0.0230294
0.010646
0.0117068
0.0120712
0.0422144
0.00133708
0.0308292
0.0500166
0.00137871
0.0191963
0.0110976
0.00258203
0.00259278
0.00220601
0.0113253
0.00579649
0.00289715
0.0531759
0.139997
0.0014857
0.0535852
0.0601877
0.0914338
0.0219041
0.0299412
0.0682505
0.00229109
0.0218507
0.0162418
0.00204723
0.00409576
0.00247239
0.00149811
0.0037953
0.0251499
0.0104018
0.0711687
0.00186576
0.011547
0.00235508
0.00258807
0.00208061
0.0652269
0.0296196
0.0045834
0.00245696
0.0282303
0.0104401
0.0385046
0.0368433
0.0416907
0.0295541
0.0022644
0.00225624
0.0118377
0.00223118
0.0111695
0.00259198
0.0203356
0.0474395
0.0150573
0.0682106
0.00284816
0.00205838
0.0215792
0.0286721
0.017251
0.0142888
0.0114801
0.012193
0.127254
0.0901375
0.0322372
0.0733384
0.0136924
0.00182767
0.0107332
0.00767055
0.0383028
0.00222003
0.0021348
0.00740108
0.0362877
0.0143917
0.0191969
0.0107238
0.012036
0.00229726
0.0669822
0.025659
0.0268946
0.00225395
0.138576
0.0673213
0.0333681
0.00125322
0.0711903
0.0168344
0.0142793
0.00202119
0.0161248
0.0065444
0.00258753
0.0134977
0.0153733
0.0235588
0.0199329
0.116003
0.0561594
0.00246838
0.0496206
0.00219586
0.0109352
0.00620956
0.040749
0.0025313
0.00218901
0.0746155
0.0103656
0.00225986
0.0719426
0.0259728
0.0242759
0.00226294
0.0022374
0.0111987
0.0334412
0.00193871
0.0023023
0.00220962
0.0545621
0.00243577
0.00256376
0.00745592
0.00470491
0.0574049
0.00354694
0.0290215
0.00200583
0.0113289
0.065541
0.0175859
0.0237757
0.0119569
0.00228114
0.00165799
0.00167562
0.00254793
0.0323142
0.00446661
0.00301286
0.0530497
0.0111236
0.0115228
0.0470316
0.0140244
0.00272715
0.00246747
0.0031291
0.0122863
0.0159442
0.00146638
0.0413882
0.00982834
0.0850051
0.0740915
0.0133746
0.00462775
0.0719696
0.00252944
0.00204507
0.0131605
0.104906
0.00401982
0.00217539
0.0130392
0.0159067
0.00220062
0.00224627
0.0196833
0.0118548
0.00200488
0.00220134
0.0107417
0.00688867
0.0410233
0.00200002
0.121905
0.0653745
0.0019668
0.073834
0.0109925
0.0396545
0.0408316
0.0643613
0.0609724
0.0767827
0.01601
0.00932292
0.00733083
0.00209787
0.00265247
0.0109449
0.00891608
0.0369495
0.0703124
0.00226451
0.00169067
0.00222476
0.00206861
0.00214464
0.00220925
0.0117947
0.00507281
0.00175417
0.0107821
0.00197356
0.00233949
0.00334612
0.00225751
0.0315064
0.0314578
0.0172762
0.016835
0.0109169
0.0331966
0.00652672
0.0105026
0.00177205
0.0129387
0.00215336
0.013992
0.0712552
0.014514
0.00441893
0.00193916
0.00655333
0.0389322
0.0384498
0.011096
0.00254331
0.00799142
0.00223064
0.0585125
0.0109301
0.0166349
0.00320674
0.00347743
0.0120964
0.00805741
0.0345023
0.0189613
0.00486808
0.00197321
0.00237714
0.00393005
0.0492844
0.0220312
0.0833618
0.0228819
0.0107464
0.0456869
0.0244056
0.0260031
0.0177239
0.0480754
0.0111324
0.00293599
0.0665285
0.0634377
0.0113266
0.0109319
0.017277
0.00234743
0.0115838
0.00738027
0.0143383
0.0874087
0.0176161
0.00508188
0.00778837
0.047522
0.0768205
0.00193765
0.0127799
0.0129265
0.00484425
0.00225135
0.00228316
0.001081
0.00451662
0.00278656
0.00221738
0.130541
0.0114618
0.0518296
0.0559995
0.0130392
0.00216191
0.0217049
0.0225533
0.0166391
0.00983493
0.0126619
0.00224574
0.0994268
0.0377243
0.0679721
0.000974707
0.00194243
0.00207618
0.0149422
0.0167963
0.0118904
0.00188383
0.0108687
0.042832
0.00223082
0.00129942
0.00500231
0.0769538
0.00168738
0.0062608
0.0108617
0.0129556
0.00336466
0.0866097
0.0366215
0.0986756
0.0131468
0.02076
0.0261423
0.00239362
0.0260141
0.133191
0.0125122
0.00700453
0.0127967
0.0548549
0.0195025
0.0145982
0.0110261
0.0286537
0.00225778
0.0341177
0.00111343
0.00236731
0.00226929
0.0373795
0.0117655
0.0401831
0.0899608
0.0119538
0.0221788
0.00168834
0.0192297
0.00223587
0.00924269
0.027488
0.024792
0.00186653
0.00234914
0.0487436
0.00110971
0.0567364
0.00154187
0.0555828
0.00258922
0.0277186
0.00185881
0.0509057
0.0123125
0.0344034
0.0562792
0.0234097
0.0257432
0.00108963
0.0487582
0.0301535
0.0234797
0.0196052
0.0118125
0.0249178
0.029434
0.00226017
0.0305504
0.0480453
0.00622476
0.0518991
0.0924522
0.00197723
0.0113798
0.00304907
0.0664741
0.00246814
0.00239079
0.00227466
0.0366602
0.127761
0.0263256
0.0123766
0.0191498
0.00201221
0.00936479
0.00305378
0.00589054
0.00237632
0.0109514
0.0100983
0.00961409
0.00215909
0.0755861
0.0723034
0.00174783
0.0055223
0.0325718
0.0372195
0.0276525
0.00209726
0.0022109
0.0102999
0.0349233
0.00258998
0.00200448
0.0842518
0.025311
0.00175734
0.00594296
0.0215614
0.0211289
0.0362928
0.034464
0.0272022
0.0105866
0.0105296
0.0474864
0.055036
0.00292667
0.0118779
0.0107375
0.0022438
0.00284574
0.0105718
0.0025706
0.0265647
0.0510353
0.00329973
0.0331023
0.0969759
0.003079
0.0150046
0.00382266
0.0329905
0.020031
0.00947097
0.0113556
0.0895035
0.0103449
0.00585764
0.0111235
0.00621548
0.0829194
0.0398434
0.0428755
0.00915828
0.00616969
0.00353757
0.0107026
0.00148053
0.00123205
0.00956242
0.0199707
0.00390256
0.00876405
0.00932231
0.00236094
0.0429154
0.0107602
0.0112649
0.00200317
0.129616
0.00387307
0.00213772
0.00436369
0.0283974
0.00309137
0.00314254
0.0127994
0.00261887
0.00360872
0.009895
0.0511533
0.00374914
0.0478604
0.0104911
0.00594551
0.0378549
0.0165779
0.0036019
0.112626
0.0121978
0.0673897
0.00413592
0.0259872
0.00350065
0.027621
0.134105
0.00324614
0.0172676
0.00975435
0.0112089
0.00220391
0.00223662
0.00446682
0.00215099
0.0028527
0.00351631
0.017087
0.0105475
0.0025514
0.00213865
0.0032174
0.0180927
0.0322972
0.0340488
0.0146982
0.00915867
0.135208
0.0025738
0.002364
0.00402711
0.00244207
0.00245058
0.0202869
0.00362686
0.00507157
0.0285357
0.010716
0.010332
0.0384872
0.0432939
0.00254028
0.0621793
0.0122866
0.0225913
0.025843
0.0171705
0.01637
0.0385837
0.00285824
0.0144539
0.00198777
0.0118843
0.00145265
0.0386551
0.0066353
0.00341549
0.0129093
0.0298903
0.0266033
0.00233263
0.0216527
0.0297044
0.0174243
0.00114786
0.00535389
0.00638318
0.0195138
0.00712389
0.124524
0.0229076
0.00643067
0.0107571
0.00136434
0.00209884
0.0080901
0.00207428
0.0405832
0.0146029
0.00213267
0.00473962
0.0326267
0.00677921
0.0490312
0.0216973
0.0237635
0.00592921
0.00162422
0.0233873
0.0739557
0.00247164
0.00149604
0.0107293
0.0016277
0.0026888
0.0241485
0.00695576
0.0426742
0.0263656
0.0555091
0.00703899
0.0233684
0.00170192
0.00191115
0.00262693
0.0322287
0.000979546
0.000836929
0.0012178
0.0124111
0.010546
0.00136248
0.0287993
0.0644945
0.0379213
0.00220417
0.0226457
0.0969169
0.0314891
0.00267393
0.0139782
0.00298539
0.0569868
0.00152636
0.0112934
0.0276066
0.0310479
0.00216131
0.0032531
0.0130041
0.0357672
0.04672
0.00427164
0.0466446
0.00122763
0.00248009
0.0282418
0.013297
0.00256576
0.0436088
0.0128127
0.00235148
0.0107238
0.0268405
0.0111292
0.00163402
0.0022752
0.0268114
0.00976421
0.00218921
0.02604
0.0623178
0.0367615
0.0127241
0.00150162
0.00240591
0.0141939
0.0504326
0.0144429
0.0544991
0.0806915
0.0691316
0.00215409
0.00218762
0.00458148
0.00210456
0.00218596
0.02929
0.0385756
0.00230205
0.00238534
0.00227416
0.00122312
0.0215557
0.0159078
0.0129335
0.00108416
0.000960553
0.00107512
0.0140667
0.0288114
0.0108178
0.00234999
0.0415257
0.00407561
0.00420393
0.0401873
0.00406939
0.0174436
0.028818
0.00196333
0.0126711
0.00203295
0.012381
0.0112603
0.00902595
0.0659553
0.00227932
0.0248093
0.030978
0.0134962
0.00400764
0.0761224
0.0881366
0.0023677
0.0017839
0.010998
0.0127011
0.00605696
0.0350359
0.0731499
0.0136087
0.0190024
0.0847219
0.0273906
0.0105832
0.0459039
0.0398988
0.0731281
0.043409
0.0116645
0.0528133
0.000940096
0.00291687
0.00178341
0.0134729
0.0017114
0.0655472
0.0230603
0.00220547
0.00190781
0.000749797
0.000834544
0.00185289
0.0141523
0.0220308
0.0112472
0.0259427
0.0263541
0.0150108
0.00168475
0.002078
0.012884
0.00434113
0.00235529
0.00223965
0.00286847
0.0164068
0.00219341
0.0105404
0.00212046
0.00402153
0.0229838
0.00127276
0.0115003
0.0136531
0.0513007
0.0983455
0.00621282
0.00226932
0.00610425