/*--------------------------------*- C++ -*----------------------------------*\
  =========                 |
  \\      /  F ield         | OpenFOAM: The Open Source CFD Toolbox
   \\    /   O peration     | Website:  https://openfoam.org
    \\  /    A nd           | Version:  10
     \\/     M anipulation  |
\*---------------------------------------------------------------------------*/
FoamFile
{
    format      ascii;
    class       volScalarField;
    location    "850";
    object      k;
}
// * * * * * * * * * * * * * * * * * * * * * * * * * * * * * * * * * * * * * //

dimensions      [0 2 -2 0 0 0 0];

internalField   nonuniform List<scalar> 
23845
(
0.0800924
0.0957904
0.0703122
0.0466508
0.0910791
0.0243746
0.0823927
0.0345557
0.0195134
0.0636114
0.0767065
0.0228825
0.0267176
0.0219771
0.091021
0.0465144
0.0387262
0.0477444
0.0296093
0.0279536
0.0669733
0.0731783
0.0631309
0.0194283
0.0692896
0.0153896
0.075218
0.0264798
0.0200811
0.0275734
0.0504549
0.0186176
0.0864892
0.0486387
0.0229782
0.0255847
0.0159161
0.0230264
0.0233948
0.020813
0.0279448
0.0389063
0.0240885
0.0389296
0.0129436
0.0299828
0.0780229
0.0506751
0.0236883
0.0153946
0.0302219
0.07225
0.0197826
0.0244035
0.0180399
0.0351758
0.0940548
0.0368675
0.0767154
0.0740297
0.0271704
0.0400706
0.0442727
0.0246837
0.0179945
0.0274029
0.0767268
0.0118908
0.0120623
0.0330908
0.0311825
0.0617775
0.0176554
0.0883022
0.0163064
0.0912758
0.0228843
0.0235781
0.0407293
0.0468699
0.0694132
0.0892127
0.0970876
0.0375455
0.0681345
0.0230597
0.0875357
0.019483
0.0177851
0.041434
0.0270845
0.0317236
0.0214927
0.0255411
0.0366982
0.0275465
0.0358284
0.0535561
0.0161252
0.0836917
0.0384022
0.0782793
0.0977838
0.0112449
0.0206142
0.0391883
0.0243268
0.0150749
0.0754383
0.0381765
0.0726311
0.0231681
0.0800619
0.0602038
0.0261536
0.0590233
0.0170428
0.0503934
0.0207603
0.0320329
0.0233305
0.0222485
0.0334604
0.0450023
0.0795693
0.0162113
0.0284228
0.0152981
0.0549536
0.0787391
0.0549385
0.0915705
0.0827524
0.0230644
0.0434349
0.091307
0.0102438
0.0227641
0.0745528
0.0235845
0.0173761
0.0377769
0.0236297
0.0405923
0.040732
0.0371274
0.0540584
0.0817423
0.0347645
0.04383
0.0881158
0.0218947
0.0893211
0.0247017
0.076348
0.0610894
0.0974778
0.0240484
0.0611176
0.0255506
0.0374732
0.0906762
0.0363106
0.0184521
0.020322
0.0515278
0.023577
0.022961
0.0271964
0.0369399
0.0234691
0.0475578
0.0191235
0.0437943
0.0184828
0.0389468
0.0338403
0.0700084
0.0147887
0.0238601
0.0847353
0.0801361
0.0892214
0.0690707
0.0445056
0.0305737
0.0388519
0.0364332
0.0184467
0.0379078
0.0224159
0.0224273
0.0221725
0.0238929
0.0387218
0.0216322
0.0164068
0.0187437
0.0133847
0.073681
0.0569785
0.0227943
0.0346319
0.0894284
0.0364705
0.0362859
0.0669106
0.0238858
0.0810799
0.0503812
0.050043
0.0214393
0.0371659
0.0271725
0.0261901
0.017297
0.0845226
0.0410101
0.0104219
0.0566977
0.0190268
0.0903704
0.0159467
0.0534139
0.0377271
0.0891189
0.0106379
0.0225686
0.0243908
0.0284777
0.0246584
0.0254974
0.0233406
0.0128395
0.0933698
0.0240436
0.0175155
0.0480484
0.0191548
0.0479709
0.0216307
0.0524974
0.0384858
0.0931718
0.0237871
0.0463268
0.0240124
0.0119583
0.0378043
0.0908124
0.0312883
0.0237644
0.0300493
0.022928
0.0882066
0.0270545
0.0350737
0.031674
0.0263437
0.0203059
0.0175833
0.0241951
0.0295784
0.0708764
0.065613
0.0191
0.0400118
0.0451439
0.0589327
0.0461984
0.0235931
0.0450109
0.0298852
0.022867
0.0693478
0.0219491
0.030825
0.0231103
0.0208254
0.062521
0.0399256
0.0245398
0.0327344
0.0457223
0.0233128
0.0295283
0.046796
0.0222518
0.0362079
0.0838205
0.0391113
0.0273916
0.0255486
0.0307023
0.0377308
0.0231828
0.030731
0.0239323
0.0232235
0.0223244
0.0611785
0.0873453
0.0237327
0.0466029
0.0237023
0.0483516
0.0245237
0.0299903
0.0372015
0.0153412
0.0295166
0.0899847
0.0306995
0.0236159
0.0630965
0.0166637
0.0294859
0.0850104
0.0260541
0.020141
0.0210044
0.0222729
0.0371045
0.0275416
0.0889068
0.0239167
0.0427974
0.0753421
0.0355245
0.0494366
0.0790899
0.0510619
0.0289533
0.0240991
0.0343274
0.0488519
0.0533909
0.0469105
0.0360517
0.0409337
0.049104
0.0355653
0.0733836
0.0133798
0.0131839
0.0194521
0.0239699
0.029138
0.0418274
0.0826483
0.0538126
0.0540063
0.0148628
0.0312066
0.0200226
0.0220859
0.0354276
0.0184336
0.0861876
0.0377949
0.0484226
0.0173476
0.0533639
0.0427691
0.0194922
0.0235741
0.0402583
0.0260928
0.021448
0.0151777
0.0383497
0.0254394
0.0293327
0.0228627
0.0244516
0.0284387
0.0592893
0.0503055
0.0365894
0.0440072
0.0899479
0.0244906
0.0619941
0.0128104
0.0130844
0.0233107
0.0246759
0.0401422
0.0571915
0.0378868
0.0786502
0.0361241
0.0258364
0.0219053
0.0286632
0.0237417
0.0661559
0.0145497
0.0341666
0.0243434
0.0575492
0.0558877
0.0345582
0.0512064
0.0835949
0.0903098
0.0237107
0.0272833
0.0198729
0.0329366
0.0910175
0.0123996
0.0851105
0.0387659
0.0983315
0.0644865
0.0616697
0.0658527
0.0238989
0.057295
0.0620702
0.0313229
0.0203391
0.0417047
0.0315666
0.0862485
0.0566347
0.0530346
0.0485272
0.0504679
0.0222469
0.0468806
0.0350062
0.0461275
0.0295215
0.0166145
0.0228188
0.0300772
0.0230396
0.0500671
0.0908766
0.0481397
0.0195718
0.0524012
0.0542431
0.0293439
0.0281707
0.0617658
0.0239862
0.0460939
0.040688
0.0215952
0.0423408
0.0241553
0.0131554
0.0350421
0.0765575
0.0915577
0.0327767
0.0240466
0.0793578
0.045115
0.0102824
0.0768723
0.0246938
0.0238829
0.0243068
0.0260149
0.0137272
0.0812474
0.0270077
0.0238899
0.0532568
0.0305633
0.0265107
0.0917471
0.0198441
0.0248451
0.0258676
0.039391
0.0695618
0.0614718
0.0502031
0.0716562
0.0581069
0.0875979
0.023591
0.0231538
0.076382
0.0390558
0.0154214
0.0628705
0.0284262
0.064643
0.0358261
0.0735987
0.0171243
0.0598928
0.0167609
0.0241301
0.0873371
0.0188473
0.0401091
0.0708914
0.0389294
0.0400747
0.0680143
0.0249306
0.0265936
0.039081
0.0498142
0.0427201
0.0158924
0.0513935
0.0230896
0.0139762
0.058647
0.0812563
0.0746447
0.0349146
0.0153134
0.0244183
0.0488441
0.0297741
0.0146364
0.0840961
0.0891347
0.0268388
0.063835
0.0228418
0.024715
0.0697646
0.0871264
0.0640014
0.0346469
0.0253435
0.0250478
0.0338312
0.0766094
0.0415345
0.0686534
0.0236003
0.0604689
0.0608488
0.0379909
0.059286
0.0722929
0.0247586
0.0266669
0.0244782
0.0243998
0.0231461
0.0442836
0.026224
0.0362617
0.0907533
0.0353923
0.0421065
0.0241278
0.0258411
0.0376771
0.0424627
0.0826268
0.0286481
0.0351573
0.0237308
0.0220104
0.0169699
0.0222503
0.0233865
0.0142894
0.0848369
0.0310394
0.0242655
0.049977
0.0842691
0.0396591
0.0671965
0.0325903
0.0788566
0.015149
0.0230024
0.0392124
0.0776014
0.0312904
0.0342766
0.0178093
0.0183188
0.0333265
0.0180574
0.0659086
0.0870001
0.0856561
0.0654002
0.0291791
0.0354689
0.0138491
0.0243305
0.046703
0.0229792
0.0672145
0.0263821
0.0790456
0.0899314
0.0479153
0.0809738
0.0325501
0.0789508
0.0858664
0.0590838
0.07014
0.0986523
0.0929678
0.0847287
0.0331017
0.0911976
0.0816279
0.0990001
0.0281184
0.0254949
0.0798733
0.0273891
0.0763244
0.0589607
0.0969818
0.0551257
0.0266766
0.0407813
0.0218815
0.0427796
0.0261319
0.0277751
0.0666855
0.0259178
0.0229694
0.0830226
0.0949136
0.0499978
0.0154142
0.0642805
0.0861209
0.0556158
0.0269329
0.0241575
0.0770944
0.084623
0.0710723
0.0224634
0.0793897
0.0613158
0.0259153
0.0235527
0.0795587
0.0409228
0.0260036
0.0805302
0.0418566
0.0679373
0.0357998
0.0737269
0.055273
0.03558
0.0492402
0.0994143
0.0455425
0.0155078
0.021443
0.0918397
0.0546813
0.0819371
0.0408106
0.0579736
0.0704438
0.0603577
0.0560912
0.076964
0.0535854
0.0796066
0.0672498
0.0462097
0.0756947
0.0494242
0.0351437
0.0473025
0.0454729
0.0879658
0.0340685
0.0442364
0.0842411
0.0779922
0.0416187
0.0367869
0.0586896
0.062614
0.0665521
0.0718872
0.0754689
0.0546918
0.078131
0.0521848
0.0723446
0.0482112
0.0638598
0.0463607
0.0467064
0.0471782
0.0431474
0.0396609
0.040644
0.0267435
0.036809
0.0564256
0.0191967
0.0354264
0.0381285
0.0387991
0.0246389
0.0665799
0.037689
0.0639575
0.0679
0.0526716
0.0364923
0.0364186
0.0265182
0.0557893
0.0493289
0.0811135
0.0213391
0.0622827
0.0346589
0.0456901
0.0271538
0.0345544
0.0771287
0.0460855
0.0795845
0.0369327
0.0232487
0.0292267
0.0140603
0.0335731
0.055693
0.0324269
0.0182661
0.0352411
0.0795376
0.0328603
0.0303511
0.0285881
0.0822509
0.0344383
0.0126826
0.0862572
0.0374042
0.039877
0.0728632
0.0681339
0.0737923
0.0695685
0.0785012
0.0358877
0.0536943
0.0625248
0.0706035
0.0509913
0.0488641
0.0451806
0.0992653
0.0426564
0.0311544
0.0741731
0.0709726
0.0817966
0.0508079
0.0608249
0.0290717
0.0973564
0.0662808
0.0463331
0.0399171
0.0460097
0.0290837
0.0220223
0.0644424
0.032285
0.0284106
0.0394033
0.0331133
0.0316434
0.0383445
0.0354107
0.0463058
0.0359776
0.0341789
0.0345677
0.0839162
0.0522343
0.0299003
0.0444149
0.0410711
0.0333454
0.081493
0.0618562
0.072328
0.0526616
0.0364457
0.0291677
0.035947
0.0347484
0.0984434
0.066704
0.0739415
0.0457089
0.0310374
0.0534417
0.0234092
0.0640046
0.0278755
0.0332448
0.0186638
0.020824
0.0362453
0.0223485
0.022462
0.0159637
0.0260312
0.0173619
0.0200911
0.0180741
0.01719
0.0153329
0.0235104
0.0272457
0.0209658
0.021605
0.0393099
0.0366394
0.039517
0.0610552
0.0767639
0.0148204
0.0185899
0.0343631
0.0728239
0.0652394
0.0740766
0.0613841
0.0483377
0.026567
0.0273942
0.0314686
0.0382358
0.047327
0.0286088
0.0372922
0.026268
0.0355382
0.0227317
0.0886594
0.0233417
0.0594395
0.0390412
0.0830414
0.0298729
0.0320267
0.0346294
0.0294713
0.0469911
0.0425942
0.0304752
0.0496018
0.0236126
0.0250386
0.0192095
0.0189748
0.0172217
0.0166418
0.0315234
0.0358083
0.0309176
0.0607153
0.0302649
0.0610075
0.0605133
0.0698745
0.031161
0.0482091
0.0299739
0.0183508
0.0353188
0.0163529
0.0436473
0.025509
0.0169428
0.0511103
0.0245788
0.0197492
0.0629446
0.0280536
0.0482855
0.0572266
0.054586
0.036116
0.0509252
0.0287553
0.0454774
0.0305295
0.0667882
0.0354713
0.0237067
0.0509275
0.0599125
0.0622832
0.084849
0.0668247
0.0334183
0.0402611
0.0440059
0.0404775
0.0902714
0.0223174
0.0387949
0.0361454
0.0260029
0.0644299
0.035036
0.0917696
0.0350147
0.0175701
0.0294662
0.0230218
0.0370034
0.0341677
0.0315027
0.0924965
0.0310853
0.0603442
0.0401952
0.0803812
0.0342018
0.0477103
0.0545246
0.0604764
0.0620589
0.0414391
0.0559861
0.0477839
0.0655086
0.0687154
0.074011
0.0453777
0.0689438
0.0699028
0.0486539
0.0839712
0.0755886
0.0660607
0.0667681
0.0304393
0.0427907
0.0443732
0.0398886
0.0267138
0.0379731
0.0540574
0.0395818
0.029813
0.0647881
0.054314
0.0650466
0.0406208
0.068717
0.0292701
0.0335548
0.0374958
0.0357517
0.0466773
0.0201592
0.0663562
0.0860421
0.096704
0.0261305
0.0343207
0.0725304
0.077639
0.0288111
0.056245
0.056243
0.0538946
0.0629379
0.0553517
0.0354643
0.0691937
0.0779706
0.0721512
0.0761409
0.0823542
0.0827134
0.0257184
0.0451702
0.0453275
0.0341496
0.0529422
0.056773
0.0328067
0.0216406
0.0269766
0.0731565
0.0267588
0.0280079
0.0154406
0.0283364
0.0125248
0.02355
0.0175032
0.0348743
0.0318165
0.032532
0.0352731
0.0810069
0.0264322
0.0303272
0.0542789
0.0402055
0.0733627
0.0673519
0.0948812
0.0716407
0.0303778
0.0383981
0.0362986
0.0272401
0.0148606
0.0255154
0.08477
0.0803121
0.0395833
0.0468546
0.0423562
0.0492121
0.0519522
0.0756558
0.033627
0.0855879
0.0680793
0.0749615
0.0728511
0.059839
0.0679528
0.0473528
0.0638976
0.0372908
0.0602303
0.0530034
0.0393915
0.0497071
0.0467125
0.0444523
0.0352282
0.0339412
0.0565333
0.0585086
0.0798556
0.0296695
0.0538347
0.0296616
0.0217283
0.042439
0.0228321
0.0569985
0.0419076
0.0378993
0.0384822
0.0343234
0.0340691
0.0828728
0.0223402
0.0285037
0.0627893
0.0399612
0.0152421
0.0562862
0.0827748
0.0510333
0.0236978
0.0693574
0.032946
0.0569198
0.0611732
0.07269
0.0496071
0.0293432
0.0675091
0.0567099
0.063603
0.0593165
0.0549796
0.0523751
0.0300319
0.048841
0.0629562
0.0317107
0.0433288
0.0827014
0.0355534
0.0445519
0.0470406
0.040855
0.0144623
0.0220326
0.038319
0.0272911
0.0331888
0.0300416
0.027561
0.0825633
0.0367431
0.0347634
0.0649958
0.0278205
0.0289834
0.0289166
0.085594
0.0327188
0.0319863
0.081993
0.0210085
0.0163811
0.0308969
0.0303649
0.0284016
0.0436138
0.0214924
0.0324811
0.0517019
0.0757097
0.0807283
0.0694765
0.0617621
0.029002
0.0448134
0.0372138
0.0396679
0.0298942
0.0825542
0.0457853
0.0271614
0.0282035
0.0502972
0.0453938
0.0605542
0.0376652
0.0297732
0.0337135
0.0276709
0.073795
0.0420947
0.0179253
0.0751948
0.031412
0.0438177
0.0293205
0.0240281
0.0274605
0.0490438
0.0344854
0.0276443
0.0706166
0.0291118
0.0734422
0.0439852
0.0236032
0.0645682
0.0331027
0.0558088
0.0584217
0.0466745
0.0646213
0.051703
0.0290013
0.0547785
0.0555267
0.0228998
0.0412583
0.0290479
0.0265688
0.0394393
0.0156031
0.0183171
0.0433884
0.0170336
0.0240805
0.048052
0.0165233
0.0220145
0.0533497
0.0212343
0.019027
0.0504848
0.0903008
0.0788272
0.021644
0.0272351
0.0595464
0.0237736
0.0250421
0.0905461
0.0631131
0.0897597
0.0431669
0.0738428
0.0330188
0.0416726
0.0481142
0.0690275
0.0293123
0.064841
0.0936965
0.0303743
0.0286908
0.0340597
0.028059
0.0234554
0.0272127
0.0374623
0.0322856
0.0907464
0.0485693
0.0354966
0.079144
0.0409823
0.0733985
0.0285846
0.0617563
0.0331786
0.041022
0.0860476
0.0296213
0.0513309
0.0267588
0.0281278
0.0545181
0.0267899
0.0905961
0.0625943
0.0779644
0.0430629
0.0427867
0.0875521
0.0304359
0.0273781
0.0733415
0.0311431
0.0318377
0.0315067
0.0741528
0.026197
0.0264253
0.0287927
0.0964858
0.0274081
0.0397029
0.0415801
0.027654
0.0266068
0.0471835
0.0526692
0.0906166
0.0226956
0.0128762
0.0294334
0.0250128
0.026374
0.0971913
0.0440039
0.0423641
0.0293683
0.0507443
0.0613953
0.039814
0.0689595
0.069986
0.0243188
0.0401781
0.026401
0.0666831
0.0638985
0.0237726
0.0496784
0.0444327
0.0519029
0.049083
0.0632964
0.0418054
0.0578913
0.0619034
0.0831207
0.0507555
0.0817448
0.0227013
0.0573633
0.0296524
0.0267077
0.0686181
0.086459
0.0652877
0.0234924
0.0876993
0.0435114
0.0380926
0.089008
0.0391778
0.0807568
0.0261526
0.0988232
0.0613991
0.0237295
0.0785883
0.0583703
0.0564256
0.0515853
0.090911
0.0881406
0.0272101
0.0321978
0.0911293
0.0655293
0.0278417
0.0974898
0.0969049
0.0319102
0.0433878
0.0334868
0.078447
0.0440893
0.0447124
0.0182044
0.0850534
0.068536
0.0232784
0.0894722
0.0832909
0.020991
0.0330928
0.0283793
0.0614285
0.072667
0.0393217
0.0264027
0.0833494
0.0648739
0.0445231
0.0918367
0.0416655
0.0329879
0.0543362
0.0511772
0.0860825
0.0272408
0.0227411
0.0777726
0.0435119
0.0330672
0.0432891
0.0250817
0.0597799
0.0554977
0.0765405
0.0827526
0.0958645
0.0276848
0.0584655
0.0275288
0.0509273
0.0614521
0.0395596
0.0290983
0.0203508
0.0902006
0.0143767
0.0269645
0.0261807
0.0558859
0.0811218
0.0939308
0.0931867
0.0675646
0.0426369
0.058648
0.0231712
0.0277902
0.0307346
0.0137012
0.025477
0.0339925
0.0775332
0.0803468
0.0352898
0.0283821
0.0471383
0.0702131
0.0335352
0.0592968
0.044483
0.0532276
0.0385409
0.0534452
0.0810242
0.0803659
0.0616986
0.026699
0.0639074
0.0867091
0.0306472
0.0319072
0.0520165
0.077582
0.0611967
0.0240424
0.02796
0.0426035
0.052286
0.0586546
0.0181078
0.0206739
0.0326079
0.0320057
0.026287
0.08222
0.0553343
0.088903
0.0598496
0.0629403
0.0680495
0.0445511
0.0260397
0.0840653
0.0275527
0.0449146
0.0441128
0.0517247
0.0393898
0.062754
0.041598
0.0613139
0.0756082
0.0321442
0.0704974
0.0240028
0.0885777
0.0267637
0.0259103
0.0814794
0.0701952
0.0258051
0.0444624
0.0576462
0.0285853
0.074774
0.0255897
0.0719957
0.0908772
0.0268947
0.0673156
0.0976718
0.0356842
0.0796331
0.0688928
0.0879503
0.0420106
0.0832336
0.0964072
0.0256863
0.0469469
0.0584257
0.0257304
0.0237765
0.0789606
0.0247416
0.0511674
0.0956346
0.073671
0.0688955
0.0161135
0.0221252
0.0231655
0.0512786
0.0240132
0.0241968
0.0409194
0.0428867
0.0306829
0.0222773
0.0244336
0.0401864
0.0473736
0.0258718
0.0500202
0.0243807
0.0248123
0.0205479
0.0869339
0.0764424
0.0255411
0.0274032
0.0568676
0.0866622
0.0257682
0.0582544
0.0253181
0.0245105
0.0516909
0.0258031
0.082047
0.0238625
0.0599061
0.0353625
0.089976
0.0204942
0.0878693
0.0920917
0.0239144
0.0967225
0.0282603
0.0254428
0.0413417
0.068176
0.0273605
0.032626
0.0317921
0.0327016
0.0318663
0.0518115
0.00336169
0.0459077
0.0842637
0.0813372
0.0667997
0.0260764
0.0955736
0.00230695
0.0233533
0.0552214
0.0240507
0.0249558
0.0956908
0.0193435
0.0304742
0.0969106
0.0974441
0.0253152
0.01494
0.032123
0.0641148
0.0255549
0.0713027
0.0948823
0.0212861
0.0839481
0.0261601
0.0227555
0.0238101
0.0184461
0.0500626
0.0869424
0.0542799
0.03061
0.0975108
0.0249462
0.0242948
0.0233845
0.0836053
0.0352126
0.0239298
0.0396125
0.0950457
0.0307218
0.0658369
0.0254607
0.0389427
0.0295592
0.0325484
0.0346418
0.0146509
0.0342396
0.0196869
0.0246308
0.0889619
0.032679
0.0429656
0.025834
0.0447782
0.0427983
0.0892091
0.0148044
0.0409828
0.0742816
0.0413742
0.0254632
0.0377814
0.0197443
0.002251
0.0419697
0.0383571
0.043101
0.0316035
0.086163
0.0802358
0.0237446
0.0310465
0.0937664
0.0898575
0.0648832
0.0318877
0.00249137
0.0333273
0.0306143
0.0437
0.0260803
0.0249578
0.0304276
0.0428065
0.0598284
0.0223354
0.0249775
0.0428252
0.0210068
0.0585584
0.0499518
0.0552502
0.00273134
0.0768072
0.0254369
0.0932658
0.0933688
0.0668724
0.0139774
0.0480662
0.0541364
0.0439185
0.00384783
0.0201922
0.0260465
0.0800841
0.0879434
0.0652708
0.091425
0.0188195
0.0224371
0.0317074
0.0311032
0.0314363
0.0288711
0.0245553
0.0676675
0.0739894
0.0882576
0.0939729
0.0769611
0.0660617
0.0966178
0.0225205
0.0482429
0.092165
0.0357861
0.00300008
0.0176143
0.052541
0.0231453
0.0525783
0.0247985
0.0423545
0.0564605
0.0200923
0.0422367
0.0427205
0.0257948
0.0581081
0.0254887
0.0832073
0.0921821
0.027319
0.0856305
0.0873295
0.0511195
0.00238397
0.0894549
0.0368425
0.026403
0.0945339
0.019116
0.0774087
0.0156656
0.0504682
0.0160225
0.0317032
0.0456948
0.0286973
0.00350086
0.085689
0.0183171
0.0412385
0.030866
0.0879882
0.0668725
0.0361623
0.086112
0.0406437
0.0613731
0.0247184
0.0434472
0.0907673
0.0125159
0.041394
0.021208
0.0243524
0.0600072
0.0326536
0.067352
0.0608219
0.0407106
0.0914327
0.0229857
0.0331689
0.0427926
0.0254942
0.0734332
0.0631843
0.00324183
0.0481013
0.0400164
0.08713
0.0253511
0.0529463
0.0241203
0.0251039
0.045151
0.0213083
0.0606607
0.0939294
0.0897385
0.0451399
0.0675067
0.0649238
0.0517057
0.0237117
0.0476585
0.0249669
0.0454125
0.042014
0.0315106
0.0427403
0.0914897
0.0244266
0.0833778
0.00434226
0.0571744
0.0160092
0.0040369
0.0675473
0.0234887
0.0839474
0.0261893
0.0237564
0.0244737
0.0883544
0.0304127
0.0228669
0.0268732
0.0745935
0.032054
0.0384464
0.0419145
0.0539048
0.0398855
0.0262744
0.0696568
0.0308886
0.0292876
0.0807444
0.0204226
0.0524874
0.0279333
0.00363708
0.0494973
0.0218477
0.0286477
0.0789606
0.093131
0.0322167
0.0251577
0.0840493
0.090924
0.086999
0.0866706
0.0833671
0.078598
0.0219966
0.0556836
0.0773621
0.0351072
0.0406077
0.0212014
0.0274683
0.0352205
0.0248132
0.0541944
0.0830872
0.0153218
0.0189306
0.0226893
0.0235243
0.0343403
0.0401748
0.0261624
0.00237641
0.0777392
0.0404624
0.025161
0.0898235
0.0726299
0.0412416
0.0302869
0.0557512
0.0321191
0.0327732
0.030733
0.0402759
0.0324349
0.027812
0.0455303
0.0328358
0.0886595
0.0428098
0.0486711
0.0764827
0.0305912
0.0477866
0.0374987
0.0393362
0.0298771
0.0323755
0.0603159
0.0339851
0.0342851
0.0356103
0.00246687
0.034531
0.0747627
0.0915269
0.00520973
0.03341
0.0890586
0.0803862
0.0204356
0.0844559
0.0237943
0.0528647
0.0953955
0.0236931
0.0315633
0.0885706
0.024782
0.0307215
0.0247782
0.0190413
0.0740542
0.0238746
0.0832387
0.0107536
0.0532532
0.0245711
0.0327388
0.0260645
0.0346764
0.0214297
0.0722859
0.0868212
0.0795224
0.0652409
0.0438511
0.0328197
0.088289
0.0339854
0.0885524
0.00837975
0.0445655
0.0432742
0.0233925
0.023265
0.0780988
0.068449
0.0298713
0.0247145
0.0304449
0.0401895
0.023508
0.0353819
0.0453579
0.0601699
0.0402913
0.0366666
0.0319971
0.023964
0.0804054
0.0362181
0.0363041
0.0464906
0.0450124
0.0504381
0.0377384
0.0298539
0.0294863
0.0048222
0.00230299
0.0617678
0.0428341
0.0704308
0.0237774
0.026323
0.0449122
0.0193709
0.0296046
0.0845538
0.0811287
0.0206563
0.0915547
0.0105446
0.0754079
0.020394
0.0819124
0.0253607
0.0339401
0.0530189
0.050645
0.0649232
0.0068592
0.0971695
0.0226799
0.0514414
0.0220771
0.0805875
0.0626259
0.0533643
0.0238573
0.0332118
0.0723537
0.0315539
0.0404847
0.0418226
0.0744581
0.0242076
0.0552293
0.0194701
0.0818335
0.0212569
0.0178518
0.0381517
0.0386128
0.0844738
0.0607436
0.0307032
0.0390129
0.0481554
0.0228044
0.0536133
0.0387015
0.0242325
0.0153039
0.0882015
0.0231516
0.0223654
0.00441033
0.00513099
0.0258458
0.0874167
0.0771781
0.0286336
0.0662387
0.0872583
0.0253628
0.0799174
0.078098
0.0844918
0.041664
0.0848792
0.0229601
0.00469132
0.0231254
0.0511298
0.0373204
0.0224222
0.0867369
0.023371
0.0446738
0.0799774
0.0342896
0.0241755
0.0887854
0.0794597
0.0398721
0.00266202
0.0948192
0.0189828
0.0307688
0.0406767
0.0337926
0.0288422
0.0203211
0.0567618
0.00523143
0.0336123
0.06263
0.0800898
0.0243292
0.0231305
0.0232959
0.0243415
0.0411168
0.0405431
0.055116
0.0326981
0.0931225
0.0464748
0.0292877
0.0312463
0.0242419
0.0858528
0.0976932
0.0236802
0.0427577
0.0795295
0.047402
0.0609279
0.0931334
0.0208218
0.0275518
0.0371537
0.0184612
0.0297401
0.0558963
0.0840256
0.0233004
0.0234333
0.0195948
0.00527221
0.0625334
0.0235177
0.0169137
0.0711153
0.0578729
0.017773
0.0234488
0.0766322
0.0905574
0.0816027
0.0424594
0.0793536
0.0516572
0.0880478
0.00556178
0.0220533
0.0928617
0.0230011
0.0130859
0.0257041
0.0253834
0.0430787
0.0502947
0.0434536
0.0778182
0.01623
0.0400082
0.0592096
0.0643139
0.0353577
0.0874018
0.00243065
0.071839
0.0240915
0.00513714
0.0581721
0.0266472
0.028442
0.0509436
0.0955699
0.0164855
0.0741956
0.0739612
0.0168987
0.0464736
0.0524779
0.0233257
0.0240507
0.0236484
0.0337276
0.0370423
0.0269257
0.00507858
0.0909828
0.0174814
0.0781471
0.00561235
0.0881904
0.0565124
0.00277504
0.0629581
0.0239608
0.0641149
0.0516129
0.0228015
0.0283194
0.0250773
0.0173871
0.0282507
0.0713364
0.027874
0.00627951
0.0196567
0.0345537
0.0241862
0.0251184
0.0229552
0.0799503
0.00268632
0.0297006
0.0250713
0.0540046
0.0306879
0.0355516
0.0695458
0.0921134
0.0648107
0.0235584
0.0233752
0.0500229
0.0235533
0.0360128
0.0252613
0.0557026
0.0745253
0.011943
0.00585816
0.0265391
0.0208862
0.0617534
0.0585268
0.0458313
0.0517579
0.0445309
0.0292278
0.08637
0.0880372
0.0445311
0.00630172
0.0312493
0.0197427
0.0516544
0.0400854
0.0446745
0.0227892
0.0204789
0.0411637
0.0678816
0.0493419
0.0556988
0.0338698
0.0347353
0.0232383
0.0855555
0.0665923
0.00254305
0.0235933
0.0870084
0.087996
0.0339094
0.0156714
0.0909452
0.0531057
0.0169629
0.0226795
0.0513313
0.0357702
0.0253744
0.058103
0.0104796
0.072273
0.0172593
0.0899382
0.0460162
0.0249569
0.0548
0.023616
0.0346454
0.0343749
0.0711346
0.0252053
0.0235976
0.00537661
0.027786
0.0235062
0.00436941
0.0608269
0.0759931
0.0234409
0.0231394
0.035318
0.002764
0.0205589
0.0233344
0.0213591
0.0953432
0.0232939
0.0250131
0.0370603
0.0299249
0.00541485
0.0267054
0.00253291
0.0212201
0.0157501
0.0574402
0.0526154
0.0626321
0.0168461
0.0239617
0.0182268
0.0184897
0.0242336
0.00331442
0.0308435
0.02736
0.0777786
0.0310863
0.0356924
0.0938297
0.0175013
0.0238582
0.0240454
0.0281408
0.0374434
0.0430861
0.0174646
0.0595557
0.0480573
0.0851598
0.0822382
0.0100664
0.032241
0.0821104
0.0246311
0.0228238
0.0103456
0.0695941
0.0301831
0.021717
0.0424386
0.0500978
0.022793
0.0232017
0.057009
0.0378713
0.0226026
0.023687
0.0218006
0.0407198
0.0710211
0.0225802
0.0743107
0.00468137
0.0198223
0.00581359
0.0347728
0.0937769
0.0717781
0.0797245
0.0908099
0.0849539
0.0541058
0.0466948
0.0404136
0.0230434
0.0257008
0.0361814
0.042972
0.0486828
0.00507328
0.0237861
0.0189882
0.0223654
0.0217529
0.0223319
0.0228513
0.055269
0.0325459
0.0190964
0.0508921
0.020015
0.0228404
0.0270063
0.0216454
0.0859567
0.0867966
0.0212991
0.0400805
0.032488
0.0582667
0.0364546
0.0185445
0.0196266
0.010021
0.0223936
0.0517789
0.0880504
0.0475497
0.0297052
0.0205998
0.0394799
0.0333907
0.0937993
0.03819
0.0243055
0.0431288
0.0235219
0.0849355
0.0332164
0.053793
0.0249249
0.0281743
0.055279
0.0415387
0.0695024
0.0573171
0.0309138
0.0210608
0.0234151
0.0289552
0.0786828
0.0166454
0.0594822
0.0608843
0.0223469
0.0754099
0.0452698
0.062028
0.0528407
0.0705107
0.0159521
0.0264996
0.0669257
0.0865608
0.0275644
0.0149893
0.0546999
0.0225073
0.0379524
0.0395117
0.0111078
0.0878237
0.013492
0.0327038
0.0384974
0.0764836
0.0717449
0.0205907
0.0324174
0.0449536
0.0337321
0.0235492
0.0236709
0.0146805
0.0298233
0.026472
0.0237531
0.0904866
0.0539645
0.0751633
0.0780395
0.0190794
0.0222749
0.0572647
0.059489
0.0190471
0.0439903
0.0438379
0.0239233
0.070073
0.0686644
0.0832647
0.0138564
0.0204623
0.0218135
0.0118005
0.0466455
0.0457205
0.0200676
0.0316993
0.071882
0.0228127
0.016264
0.030944
0.076781
0.0183558
0.0372528
0.0319171
0.0446071
0.0292751
0.0827115
0.081541
0.0811774
0.0503146
0.0237902
0.0541547
0.0236214
0.0698924
0.0920275
0.0443844
0.0413342
0.0100825
0.0775314
0.0151582
0.0452373
0.0373227
0.0680778
0.0230071
0.0488443
0.014844
0.0241766
0.0222505
0.0925074
0.0538753
0.039189
0.0873171
0.0356549
0.0574871
0.0187998
0.056918
0.0238862
0.0412264
0.00236091
0.0605201
0.0203049
0.0237365
0.0766428
0.0148205
0.0674116
0.0176133
0.0616802
0.0254833
0.0500707
0.0203042
0.0691971
0.0478883
0.0892519
0.0755231
0.0264371
0.0166906
0.0147612
0.0416228
0.0655827
0.0534084
0.0603969
0.0457635
0.0613074
0.0723324
0.0231358
0.0779678
0.0738133
0.0340535
0.0755877
0.0699642
0.0211144
0.0345287
0.0249894
0.0805089
0.0250225
0.0241797
0.0237008
0.0905694
0.0908576
0.0428973
0.0489645
0.0546341
0.0212515
0.0459328
0.0243558
0.035008
0.024409
0.0527895
0.0513416
0.0456603
0.0208459
0.0827249
0.0046353
0.019513
0.0330475
0.0704812
0.0474756
0.0706954
0.0210749
0.0235131
0.0247506
0.08857
0.0256898
0.0226046
0.0597044
0.0796455
0.0190327
0.0362392
0.059877
0.00720437
0.0663533
0.0900612
0.00225292
0.0206254
0.0516881
0.0756396
0.0599
0.0268525
0.0360417
0.0468408
0.0236306
0.0239457
0.020912
0.0232559
0.0635959
0.0758487
0.0288058
0.0875805
0.0706976
0.0247194
0.0216228
0.030051
0.0726615
0.0587462
0.0496043
0.0394824
0.0850609
0.0504437
0.034406
0.0390372
0.0367149
0.0838972
0.0389096
0.0523752
0.0422885
0.0355163
0.0296839
0.0318861
0.0174719
0.0158213
0.0453895
0.0583443
0.0311166
0.0481299
0.0435534
0.0239741
0.0757572
0.0343425
0.0451361
0.0212167
0.090413
0.029296
0.0204701
0.0290271
0.0195904
0.0280745
0.026082
0.0239066
0.0231837
0.0300429
0.0492496
0.0751299
0.0306482
0.0844548
0.0286954
0.0367931
0.0570304
0.0562429
0.030425
0.0870287
0.0347033
0.0535992
0.0287523
0.063163
0.0259856
0.00242905
0.0920025
0.0287267
0.0527561
0.049636
0.0348331
0.0234933
0.0236503
0.0321568
0.0210594
0.0246234
0.0298914
0.0255824
0.0474807
0.024138
0.0232299
0.026614
0.0138964
0.068368
0.00445578
0.0552089
0.048722
0.0899024
0.0254209
0.0240968
0.0291482
0.0249635
0.024942
0.0604222
0.0272254
0.0331114
0.0649405
0.0333659
0.0234808
0.00216132
0.0751022
0.0249035
0.0043772
0.0176917
0.0609334
0.0178708
0.0189445
0.0274101
0.0712138
0.0246069
0.0237457
0.0197749
0.0356139
0.0173279
0.0877533
0.0393969
0.0266854
0.0337928
0.0717642
0.0196947
0.0238198
0.0752623
0.0850535
0.0557591
0.0150773
0.0341667
0.03457
0.0488189
0.0368793
0.0824266
0.0765271
0.0399556
0.0340834
0.0167876
0.0203648
0.0382166
0.0203492
0.0840887
0.0111705
0.0221745
0.033498
0.0696209
0.0360363
0.0762781
0.0517419
0.0590297
0.0346261
0.0185775
0.0606316
0.0813573
0.023891
0.0177336
0.0289341
0.0186542
0.0247057
0.0623269
0.0401467
0.0440149
0.0774623
0.0782373
0.0396456
0.077461
0.0184658
0.0204758
0.0250938
0.0667142
0.0139561
0.0128709
0.0157025
0.04263
0.0319608
0.0167357
0.0704534
0.0795062
0.070048
0.0219547
0.0503568
0.087174
0.036295
0.0260628
0.0293816
0.0245307
0.0774972
0.0179222
0.0398823
0.0295454
0.0451794
0.0233241
0.0288218
0.0400899
0.00627126
0.00554513
0.0297298
0.0441159
0.0157801
0.0243451
0.0463927
0.0436652
0.0232079
0.0739458
0.0494175
0.0240345
0.0259672
0.0276088
0.0386668
0.0183989
0.0233892
0.0714825
0.0450736
0.0225952
0.0735528
0.073827
0.0580888
0.0376286
0.017703
0.0220483
0.0359105
0.0745769
0.0425218
0.0984784
0.0847098
0.082087
0.0233205
0.0234856
0.0299977
0.0212457
0.0217593
0.0183127
0.0697977
0.0241403
0.0246878
0.0240413
0.0157574
0.0632738
0.012417
0.0358644
0.0147562
0.0137809
0.0146723
0.0102777
0.0628562
0.0352234
0.0243026
0.0750443
0.0319193
0.0290145
0.0734557
0.0312522
0.023773
0.0733559
0.0205869
0.0345773
0.0214591
0.0275519
0.0306058
0.0409122
0.0802183
0.023646
0.0670654
0.0377958
0.0465539
0.0287284
0.082313
0.0850039
0.0242524
0.0197813
0.0297071
0.0104465
0.0359998
0.0675255
0.084476
0.0483158
0.0149032
0.0847879
0.0177642
0.0295212
0.0549715
0.052013
0.0865367
0.0752841
0.0335572
0.0801345
0.0136749
0.0252852
0.0196735
0.0421477
0.0192312
0.0801485
0.0173478
0.0227298
0.020609
0.0121758
0.0129078
0.0201959
0.0381296
0.0573075
0.0401012
0.0645448
0.054525
0.0399857
0.0190481
0.0209028
0.0369777
0.0294554
0.0238746
0.0235944
0.0244288
0.0126931
0.0234842
0.0186336
0.0231493
0.0313361
0.0234741
0.0160615
0.0413336
0.0364413
0.0766964
0.0866202
0.0383876
0.0239399
0.0353335
0.0352208
0.0686302
0.0287865
0.0284615
0.0316595
0.0264739
0.079783
0.0294361
0.0236151
0.0234819
0.0204064
0.029744
0.0357937
0.074225
0.0773567
0.0138142
0.0303295
0.0736539
0.0359889
0.0711145
0.0795243
0.0382646
0.0731628
0.0725228
0.0669658
0.0417937
0.0189678
0.0122048
0.0126914
0.0407588
0.067931
0.0236057
0.0533335
0.0724503
0.0665663
0.0123396
0.02431
0.0331033
0.0166936
0.023632
0.0706558
0.0258527
0.027351
0.0705643
0.0128427
0.0808699
0.0740248
0.0292229
0.0165238
0.0295749
0.0568423
0.0720425
0.0117859
0.0115654
0.0140337
0.0884178
0.121919
0.136215
0.140982
0.140102
0.135332
0.128058
0.119294
0.109779
0.100081
0.0905706
0.0815037
0.0730435
0.0652758
0.0582292
0.0518931
0.0462318
0.0411951
0.0367259
0.0327698
0.0877142
0.120963
0.135281
0.140135
0.139391
0.134767
0.127638
0.119008
0.10961
0.0999972
0.0905531
0.0815349
0.0731072
0.065359
0.0583224
0.0519899
0.0463282
0.0412893
0.0368173
0.032858
0.0869788
0.119992
0.134313
0.139263
0.138654
0.134182
0.127203
0.118709
0.10943
0.0999099
0.0905366
0.0815696
0.0731764
0.065449
0.0584233
0.0520949
0.0464332
0.0413919
0.0369162
0.0329522
0.0862151
0.118996
0.133315
0.138366
0.137892