/*--------------------------------*- C++ -*----------------------------------*\
  =========                 |
  \\      /  F ield         | OpenFOAM: The Open Source CFD Toolbox
   \\    /   O peration     | Website:  https://openfoam.org
    \\  /    A nd           | Version:  10
     \\/     M anipulation  |
\*---------------------------------------------------------------------------*/
FoamFile
{
    format      ascii;
    class       volScalarField;
    location    "850";
    object      nut;
}
// * * * * * * * * * * * * * * * * * * * * * * * * * * * * * * * * * * * * * //

dimensions      [0 2 -1 0 0 0 0];

internalField   nonuniform List<scalar> 
23845
(
0.0136055
0.013874
0.00774048
0.014107
0.0181737
0.0220798
0.00798947
0.0099421
0.0194983
0.0141162
0.0221196
0.0229011
0.0190203
0.0206169
0.00611588
0.0158302
0.0210958
0.0233237
0.0177795
0.0224204
0.0119703
0.0229108
0.0128956
0.0192566
0.0165291
0.0179324
0.00983039
0.0220131
0.00348375
0.0220957
0.0148317
0.00127125
0.00497731
0.0227339
0.0229294
0.0229885
0.00110129
0.0229063
0.0225939
0.0199135
0.0173498
0.0223085
0.0184772
0.0230064
0.0177897
0.0199577
0.0193547
0.0162692
0.00222538
0.00195143
0.00567362
0.0100336
0.00127383
0.0212732
0.00123024
0.0199776
0.0145137
0.010992
0.012349
0.0138959
0.00629036
0.0227504
0.0165598
0.00431367
0.0187242
0.0195497
0.0096764
0.0179739
0.0177684
0.0176487
0.00829311
0.0081741
0.0180188
0.00664018
0.0181963
0.00635273
0.0228464
0.0226406
0.0131191
0.0206669
0.0110003
0.00744959
0.0141782
0.0113437
0.00646908
0.0229299
0.00855933
0.0011769
0.0187855
0.0194473
0.00466415
0.0171852
0.00375797
0.0228025
0.0105916
0.00547663
0.0204383
0.0161048
0.0182554
0.0193985
0.0199572
0.0092781
0.0169498
0.000830943
0.00295909
0.0119792
0.0218696
0.0179765
0.0108948
0.0226648
0.0222221
0.0228544
0.00644793
0.0152095
0.0229546
0.0131093
0.018223
0.0150058
0.00367281
0.00715636
0.0227157
0.00253728
0.0177804
0.0084586
0.00901386
0.017996
0.00692676
0.00194862
0.00676785
0.0179055
0.00478758
0.0195162
0.022231
0.0213334
0.0199679
0.0154681
0.000729355
0.0228936
0.0109531
0.022535
0.00229079
0.0224663
0.0227411
0.0231983
0.0168156
0.0229096
0.0139932
0.00702285
0.00571662
0.018565
0.00547568
0.0186277
0.0103387
0.0198564
0.00632344
0.020048
0.0181551
0.022864
0.00439245
0.0051465
0.0175532
0.0062332
0.0100556
0.0189541
0.017615
0.0199422
0.0219011
0.00295879
0.022164
0.0230016
0.0217126
0.0135234
0.0191121
0.00953101
0.0188938
0.0122082
0.0169417
0.0199109
0.0180228
0.0228259
0.0198223
0.0202051
0.00693948
0.0227668
0.0162698
0.0189091
0.0223915
0.0107848
0.00290419
0.0220471
0.00382475
0.0206456
0.0205141
0.0215956
0.0171126
0.0201078
0.00196324
0.00293831
0.000752104
0.0214082
0.0213545
0.0202953
0.00640073
0.0209577
0.0108888
0.0102057
0.00740854
0.0222026
0.0116193
0.0230929
0.0218046
0.00283351
0.0163908
0.0218382
0.0033094
0.00121702
0.0220721
0.0226451
0.00055248
0.00546711
0.0179807
0.00648928
0.00183893
0.0186549
0.0231607
0.00565316
0.000746314
0.0206632
0.0221662
0.0174075
0.0226287
0.00290007
0.0228454
0.0178443
0.0186618
0.00504438
0.0185536
0.0148068
0.0188252
0.0124007
0.00159104
0.0144315
0.0119536
0.0194255
0.00308476
0.0164629
0.0217035
0.0179649
0.011342
0.0064144
0.0204899
0.0229139
0.00568903
0.0181801
0.0069052
0.0047921
0.00715649
0.0071946
0.0228272
0.0194642
0.000839633
0.0229206
0.00751691
0.0218304
0.021425
0.0193272
0.0128872
0.00707856
0.0156552
0.0144949
0.0226993
0.0132386
0.00510901
0.0208046
0.0230825
0.0203328
0.0069311
0.020813
0.00192228
0.0133244
0.0117243
0.0220901
0.00732794
0.0177058
0.0229368
0.0058191
0.0105342
0.0199067
0.0103825
0.0066401
0.0123224
0.00372955
0.00485983
0.00686546
0.0113798
0.0229102
0.00509572
0.0213597
0.0229329
0.00400289
0.00412302
0.00584131
0.00491871
0.0148235
0.0212582
0.0150927
0.0039004
0.00529708
0.0198347
0.00185141
0.0048327
0.0115341
0.0186742
0.0217576
0.0109347
0.0021893
0.00519951
0.0219513
0.00450492
0.0179761
0.00274627
0.00291625
0.00463521
0.0218727
0.00652152
0.0223126
0.0139686
0.0174283
0.00726775
0.023529
0.00816992
0.018882
0.00542038
0.0229677
0.00659493
0.0143838
0.0127026
0.0235504
0.0226717
0.0133203
0.0127425
0.00511783
0.0226067
0.0178382
0.0177452
0.00143444
0.0229694
0.00613208
0.0135901
0.00552415
0.0134804
0.00473297
0.00183506
0.00663776
0.00128067
0.0205606
0.0232308
0.0184619
0.00678983
0.0116727
0.00747072
0.0186376
0.0141988
0.0179488
0.00324506
0.021733
0.0070506
0.0226544
0.00381477
0.0179694
0.0228445
0.00408809
0.00305899
0.0229085
0.022805
0.00531396
0.0103434
0.0137702
0.0226782
0.0121542
0.00689158
0.0229065
0.0127876
0.0178039
0.0178619
0.0227728
0.0224594
0.0129194
0.0224383
0.0115753
0.00912776
0.0230337
0.00358341
0.00283587
0.00434965
0.00426175
0.0223364
0.0177633
0.0176234
0.0229737
0.0119894
0.0159302
0.00909683
0.0118288
0.0135235
0.00675909
0.0222966
0.00336602
0.00309346
0.00790738
0.00594092
0.0178817
0.00764535
0.0060465
0.0171771
0.0103103
0.016027
0.0233683
0.0225018
0.013514
0.00365193
0.0226377
0.0197746
0.0136593
0.00820193
0.0126477
0.0034787
0.014732
0.00950287
0.00846429
0.0203685
0.0230356
0.00474083
0.0238655
0.0209183
0.0180271
0.0229227
0.0189385
0.00456464
0.0107614
0.0064187
0.0031819
0.00280131
0.00646705
0.0152589
0.00466635
0.0220947
0.0173867
0.0225662
0.0125255
0.0132352
0.0188038
0.00299441
0.0229578
0.0179359
0.00528439
0.0146311
0.020586
0.00824679
0.020866
0.0105624
0.0145028
0.000742065
0.0160428
0.0225364
0.0224808
0.0217867
0.00315538
0.0178494
0.00531689
0.0219915
0.02205
0.0158649
0.00755943
0.00432519
0.0194188
0.0186055
0.0033215
0.0215357
0.0185782
0.018581
0.0172492
0.0153132
0.0231864
0.0229644
0.00741116
0.0227859
0.0228705
0.0085871
0.00688612
0.0180895
0.00448523
0.005846
0.0179466
0.0104187
0.0192177
0.0180621
0.00975005
0.0184459
0.0229059
0.00924355
0.00250191
0.00557762
0.0191697
0.011928
0.0126425
0.0223831
0.0181332
0.0224349
0.00618575
0.0153183
0.00469324
0.0011427
0.0156179
0.0210289
0.0178176
0.0167308
0.00494987
0.0055282
0.0222878
0.000798183
0.0207172
0.0232714
0.00424045
0.0176894
0.00786107
0.0067605
0.00488865
0.0120232
0.00404171
0.00524624
0.00392385
0.0213421
0.0138281
0.018826
0.0181194
0.0213679
0.00587441
0.0205262
0.0132214
0.00690438
0.0205777
0.0135927
0.0132601
0.0171213
0.0131901
0.0232942
0.0187454
0.0218136
0.0193085
0.0198122
0.0229334
0.00843379
0.0198614
0.0107638
0.011154
0.0228936
0.0050753
0.0229776
0.0223995
0.0112149
0.0138933
0.0149852
0.022365
0.022884
0.00274219
0.00338356
0.0180807
0.00426878
0.0181745
0.017719
0.00790835
0.0188788
0.0219831
0.0153681
0.020312
0.00798023
0.00488873
0.00793502
0.0202492
0.0176367
0.0228529
0.0170463
0.00740013
0.00454054
0.0233823
0.0179943
0.0180379
0.00802739
0.0181729
0.0139479
0.00563237
0.0129564
0.023193
0.00674085
0.0233199
0.0176755
0.0207588
0.023351
0.0228248
0.00937931
0.0213417
0.0214964
0.00680326
0.0116621
0.0181536
0.00747702
0.0208315
0.00751688
0.0199766
0.0187584
0.0174324
0.013962
0.0206253
0.00409241
0.0146218
0.0224393
0.0182983
0.0220417
0.0210167
0.0211913
0.0063688
0.0201837
0.020776
0.0165836
0.0238925
0.0174222
0.0235812
0.0176196
0.0156054
0.0189628
0.019607
0.0175029
0.0221928
0.0229114
0.00618057
0.0157739
0.0151984
0.0176298
0.023104
0.0166564
0.0226935
0.0225242
0.0181561
0.0138949
0.0203717
0.012244
0.0181512
0.0183962
0.00635443
0.0230434
0.0229522
0.0226918
0.012594
0.00535267
0.0043342
0.00438297
0.0167951
0.00795261
0.0221619
0.022025
0.0185844
0.0219955
0.0171655
0.0209993
0.0176035
0.0176358
0.0201548
0.016191
0.0201843
0.0159307
0.0238973
0.0210018
0.0239561
0.0239645
0.0234131
0.0239779
0.0228996
0.0206607
0.021134
0.020922
0.0239467
0.0220797
0.0238712
0.0211874
0.0198866
0.0200433
0.0238639
0.0217418
0.0186489
0.0237122
0.021727
0.0240295
0.0240464
0.0239389
0.0238389
0.023646
0.0240265
0.0232529
0.0240166
0.0204425
0.0239539
0.0203537
0.0239332
0.0227609
0.0220124
0.0238846
0.0236212
0.0237296
0.017913
0.0211606
0.0161411
0.0187892
0.0212181
0.0211453
0.0236839
0.0220264
0.0221733
0.0236255
0.0238173
0.0237848
0.0238491
0.0235485
0.0212677
0.022917
0.0169521
0.0176364
0.0224719
0.0189528
0.0237067
0.0235094
0.0233662
0.0226879
0.0212738
0.0231408
0.0227839
0.0219581
0.023467
0.0202053
0.0214638
0.0177817
0.023404
0.0213886
0.00876365
0.0181508
0.0234579
0.0229321
0.0234029
0.0218085
0.0223536
0.00758448
0.0219439
0.0177765
0.0200865
0.0211286
0.00770107
0.0197467
0.0199546
0.0237241
0.0238877
0.0231822
0.0222947
0.0240508
0.0232129
0.0231431
0.0240558
0.0184737
0.0238974
0.0152982
0.0237813
0.0233547
0.0237978
0.0238481
0.0225131
0.0133758
0.0200834
0.0221047
0.0192561
0.0199774
0.0221772
0.0237176
0.0239113
0.00489256
0.020309
0.0213186
0.0233208
0.0190617
0.0233317
0.0232941
0.0233206
0.0236024
0.0208718
0.0220269
0.0222942
0.0234416
0.0212301
0.0169758
0.0235314
0.0219138
0.0234227
0.02341
0.0205019
0.0227438
0.0212396
0.0213628
0.0211185
0.0221159
0.0217698
0.0213543
0.0219416
0.0164981
0.0184266
0.0235773
0.0196826
0.0232714
0.0238022
0.00437311
0.0214744
0.0174548
0.0169606
0.0177269
0.017678
0.0165098
0.0176187
0.0176019
0.0178433
0.017448
0.0177415
0.0176175
0.0177538
0.0177021
0.017836
0.0175532
0.0173959
0.0176318
0.0176442
0.0161303
0.0233198
0.0234556
0.00888511
0.023461
0.0176841
0.0191442
0.0226572
0.0185488
0.0239737
0.0213537
0.0240544
0.0221208
0.0173484
0.017441
0.0171735
0.0164398
0.0239468
0.0219725
0.0223586
0.0192182
0.0173948
0.0229114
0.00700608
0.0229164
0.0172259
0.0220453
0.0224748
0.023314
0.019948
0.0166878
0.0171741
0.0150142
0.0156934
0.0171113
0.0146346
0.0175922
0.0174707
0.0176203
0.017547
0.0175737
0.0176006
0.0187246
0.0235489
0.0233614
0.0179747
0.0221653
0.0187859
0.017108
0.0237436
0.0170555
0.0148259
0.0171537
0.0175431
0.0166053
0.0176282
0.0154917
0.0174513
0.0175952
0.0143997
0.0174584
0.0176005
0.0238021
0.021292
0.0228684
0.0166038
0.0237206
0.0219314
0.0239108
0.0209224
0.023771
0.0233391
0.021583
0.00358861
0.022965
0.0239363
0.0237905
0.0238646
0.0211331
0.0237575
0.0229513
0.0169493
0.0236587
0.0233559
0.00542187
0.00256328
0.0235999
0.0235087
0.0209446
0.016562
0.0217051
0.00596576
0.0231869
0.0177569
0.0181168
0.0175827
0.0221569
0.0234157
0.0197119
0.0202156
0.0231745
0.0128102
0.017537
0.0228194
0.023106
0.0177088
0.0237211
0.023437
0.0236098
0.0198484
0.0176518
0.0237052
0.0237759
0.0238363
0.0235549
0.0235498
0.0217686
0.0233854
0.019841
0.021389
0.021692
0.02352
0.0170443
0.0232545
0.0236593
0.0211387
0.0235187
0.0229947
0.0234861
0.018773
0.0233599
0.0232714
0.0229951
0.0196067
0.0220621
0.0220226
0.0130776
0.0232652
0.0200788
0.0233132
0.0233891
0.0209438
0.0182166
0.0237156
0.021255
0.0155096
0.0201057
0.0232824
0.0234481
0.0232531
0.0231871
0.0158475
0.0231685
0.0230549
0.0226252
0.0160561
0.0187087
0.0231635
0.0229826
0.0222217
0.0187927
0.0216382
0.0205135
0.0190869
0.0219788
0.0224362
0.0232621
0.0196359
0.0186058
0.0202157
0.00173022
0.020498
0.00479224
0.0195704
0.0216998
0.00197231
0.0231664
0.0178547
0.0228277
0.0175609
0.0226623
0.0233763
0.0220876
0.0213243
0.0227134
0.00582209
0.0233242
0.0233849
0.0185929
0.0194209
0.0184659
0.0160101
0.0233521
0.0232316
0.0220144
0.0233475
0.0213889
0.017839
0.0214983
0.0199525
0.0222522
0.0162016
0.0152379
0.0158405
0.0149398
0.0145894
0.0236117
0.0234124
0.0218968
0.0191985
0.0192914
0.0238102
0.0190111
0.023875
0.0222014
0.0240201
0.0235464
0.0240373
0.0240138
0.0236942
0.0239047
0.0239146
0.0237561
0.0235036
0.0223092
0.0235379
0.0138194
0.0229961
0.0232183
0.0142436
0.0231272
0.01875
0.023008
0.0228823
0.0237254
0.0235127
0.0221264
0.0232898
0.0191292
0.020535
0.0210145
0.0182075
0.02308
0.0141947
0.0221479
0.0179076
0.0240401
0.0225108
0.0196358
0.0044258
0.00850641
0.0207475
0.018896
0.0185547
0.0234882
0.0227011
0.0232083
0.0237227
0.0197949
0.023847
0.0239778
0.0238707
0.0237921
0.00265595
0.0238556
0.0169562
0.0232373
0.023751
0.01793
0.0185406
0.0209781
0.00439471
0.0235331
0.0177884
0.0182042
0.023505
0.0227525
0.0233984
0.0231392
0.0207891
0.0224509
0.0234639
0.023401
0.0128095
0.023161
0.0231945
0.0228766
0.0142875
0.019873
0.0220926
0.0221526
0.0179711
0.0183268
0.0233151
0.0196488
0.018148
0.00932072
0.0179783
0.0231579
0.0186065
0.0227844
0.0222673
0.0232595
0.0235643
0.0215351
0.0233284
0.0231778
0.0229468
0.0226234
0.0224336
0.0227115
0.0215052
0.0231721
0.0237026
0.0219995
0.0126144
0.0106749
0.0223124
0.0217644
0.0214327
0.0198975
0.0209712
0.0175525
0.0221736
0.0233552
0.0142763
0.0228607
0.0222619
0.0231843
0.0203764
0.0222561
0.0179223
0.0213935
0.0224793
0.0187506
0.0218228
0.0192661
0.0223618
0.0221098
0.0202278
0.0209321
0.020081
0.0200277
0.0222327
0.0230861
0.0220686
0.0239583
0.017609
0.0237431
0.0180219
0.0175301
0.016242
0.0178324
0.0177495
0.015705
0.0177632
0.0175204
0.0150745
0.01783
0.017617
0.0143857
0.017655
0.0177278
0.0147697
0.0210902
0.0185462
0.0196727
0.0205077
0.0150718
0.0224029
0.0230602
0.0200523
0.0173005
0.0197334
0.0210457
0.0152552
0.0218321
0.0230732
0.0157085
0.0236324
0.0220699
0.0238227
0.0185066
0.00241497
0.0219367
0.0232341
0.023098
0.022866
0.0231122
0.0234222
0.0233954
0.00567278
0.0238282
0.0233811
0.0230303
0.019925
0.0235192
0.0231813
0.0125187
0.0201467
0.0198225
0.017515
0.0189761
0.0232786
0.0230824
0.0201751
0.00499997
0.0231362
0.0157525
0.0220867
0.0227115
0.0102434
0.0137038
0.0215823
0.0211147
0.0199211
0.0184707
0.021168
0.0211929
0.0211791
0.0130367
0.022387
0.0205926
0.0190283
0.0188456
0.0181116
0.0196995
0.0235439
0.0228653
0.00380326
0.0201061
0.020139
0.0171088
0.0229188
0.000920975
0.0204956
0.00461659
0.0230685
0.0177679
0.021061
0.0213742
0.0226879
0.0209985
0.0218144
0.0209631
0.0214243
0.018591
0.0180088
0.0208649
0.023027
0.0184537
0.0183959
0.0218153
0.0213075
0.0219392
0.0209661
0.01851
0.021944
0.0238061
0.0198195
0.0209979
0.0151526
0.022519
0.0183268
0.0210081
0.0240562
0.022982
0.0198025
0.0065611
0.0174875
0.0172508
0.0214932
0.0193402
0.0218859
0.0206672
0.0173383
0.0207819
0.0126567
0.0059615
0.0186728
0.0216935
0.0219845
0.00523137
0.0211718
0.0208707
0.0205735
0.0185066
0.015158
0.0228452
0.0217714
0.00524254
0.0115819
0.0211471
0.0185077
0.0173639
0.0203497
0.00512117
0.0226716
0.0136136
0.0226165
0.0153689
0.0186756
0.0181384
0.0114661
0.022872
0.0059137
0.0144875
0.0200489
0.00806864
0.0201476
0.0155864
0.0140997
0.0124787
0.0216812
0.0197266
0.011976
0.0230349
0.0168548
0.0217566
0.0233443
0.0223356
0.0201787
0.0168286
0.0230459
0.0192913
0.0209399
0.0195028
0.0222414
0.0232812
0.0200442
0.0231838
0.0217182
0.0154968
0.00979135
0.0184207
0.0230237
0.0220388
0.0222781
0.0213802
0.0222531
0.0226802
0.00718197
0.0185492
0.0168691
0.00101028
0.0208701
0.0210962
0.019687
0.0207348
0.017136
0.015177
0.023201
0.0236967
0.0238795
0.0207376
0.0225099
0.0211423
0.0177489
0.0230292
0.0226478
0.0151403
0.00461104
0.0196974
0.0193231
0.0203951
0.0111758
0.0220233
0.0206504
0.0224743
0.0227558
0.0230696
0.0218516
0.0215247
0.0204587
0.022596
0.0229019
0.0227161
0.00831276
0.00739035
0.0232575
0.0217054
0.020252
0.0222396
0.0193831
0.0231232
0.0218303
0.0197572
0.0222933
0.00236922
0.0191631
0.0070378
0.02277
0.0230749
0.0104942
0.0212449
0.0210465
0.0221513
0.0200593
0.0199335
0.018467
0.0207436
0.0170206
0.0228374
0.0226567
0.0232444
0.0212922
0.0125229
0.0224727
0.0196548
0.0234145
0.0170391
0.0081325
0.0222765
0.0195842
0.0138992
0.0230834
0.0227519
0.0222641
0.0177908
0.00567118
0.00381945
0.0235812
0.0228977
0.0200543
0.0209361
0.015978
0.0192885
0.0229862
0.0214287
0.0170816
0.0199233
0.0136324
0.0222886
0.0209036
0.0198211
0.0132813
0.0193133
0.020605
0.0203693
0.00712256
0.0204589
0.0200453
0.015242
0.0229174
0.0185725
0.0199153
0.0164312
0.00502483
0.0180169
0.020653
0.0214118
0.00439926
0.0198467
0.0174853
0.0191597
0.0111668
0.0219657
0.0180253
0.0201736
0.0110792
0.0156359
0.0230644
0.0199966
0.0229804
0.0227616
0.0184912
0.00904543
0.0222783
0.0230521
0.0229983
0.0140127
0.0211497
0.0181099
0.0185337
0.0230402
0.022828
0.00733549
0.0200847
0.0217805
0.0229519
0.0184636
0.0104024
0.00511053
0.00270093
0.00703816
0.0115415
0.0203262
0.0182565
0.0227398
0.0209936
0.0229598
0.0179928
0.0230709
0.00692913
0.00394009
0.0228809
0.0230471
0.0153883
2.06122e-05
0.0151881
0.00825586
0.0216783
0.0131611
0.0230337
0.0194157
1.68881e-05
0.0227876
0.0143573
0.0223122
0.022497
0.0156577
0.00323018
0.00797476
0.0137853
0.0152219
0.0179241
0.0018303
0.0211089
0.0137201
0.0227469
0.0113872
0.0194417
0.0187913
0.0188091
0.022375
0.0193035
0.0221457
0.00271837
0.0150315
0.00649518
0.00759297
0.0228765
0.014462
0.0221884
0.0215169
0.0229077
0.0191826
0.00990013
0.0221033
0.0199292
0.013042
0.0057472
0.023323
0.0214172
0.0122337
0.0213193
0.0232497
0.0200237
0.0177913
0.0201917
0.0194467
0.0229834
0.00623253
0.0225995
0.0225353
0.0229997
0.0160224
0.0135061
0.0206581
0.0180407
0.012743
0.0157422
0.0159785
0.0211792
0.00388488
0.0175137
1.65644e-05
0.012298
0.0114341
0.0221846
0.0231311
0.010915
0.0117883
0.0201595
0.0224154
0.0144488
0.0172828
0.017661
0.0169953
1.78426e-05
0.0226926
0.0071694
0.0225616
0.0048759
0.0229827
0.0223844
0.0232735
0.0227393
0.00403739
0.0222314
0.0138431
0.00277081
0.0233348
0.0174329
0.0138478
2.19127e-05
0.0199392
0.0219258
0.0202608
0.0193451
0.0116121
0.0177127
0.0132514
0.0139197
0.0141131
3.21446e-05
0.0191719
0.0219994
0.0179785
0.00642829
0.0231283
0.012597
0.0191178
0.0188212
0.0183777
0.0231666
0.00675975
0.0207623
0.0223387
0.0169188
0.018098
0.0103931
0.0132466
0.00534539
0.00787832
0.0158368
0.00218099
0.0149015
0.0208036
0.0176059
2.44123e-05
0.0180168
0.0129146
0.0227817
0.00412306
0.00503748
0.0235163
0.02329
0.0176989
0.0221027
0.0231025
0.022113
0.0237509
0.0222424
0.0121595
0.0188528
0.0190391
0.0217003
0.0216546
0.0146801
1.55184e-05
0.00489192
0.0111674
0.005635
0.0125707
0.00305374
0.0224909
0.017964
0.00377947
0.0176266
0.00628591
0.0153941
0.0173237
2.8525e-05
0.0221118
0.0189332
0.0131349
0.022986
0.00958836
0.0130528
0.0166857
0.00683973
0.0227878
0.0125431
0.0174766
0.0231523
0.0126035
0.000807852
0.018577
0.018135
0.0178905
0.0221435
0.0226843
0.00512148
0.0232361
0.0184568
0.0119567
0.0228753
0.00923248
0.0164521
0.0221096
0.0177149
0.00570631
2.6493e-05
0.00909687
0.0104203
0.0115033
0.0215705
0.0157486
0.0226161
0.0224448
0.0144807
0.0201323
0.00694946
0.0126954
0.0115288
0.0114387
0.0222717
0.0131011
0.0228867
0.0188443
0.0227538
0.0188421
0.0137132
0.0230344
0.0201502
0.0180575
0.00603025
0.0227443
0.00757329
3.76627e-05
0.0234371
0.00198721
3.44839e-05
0.0122539
0.0229395
0.00450058
0.0180968
0.0221304
0.022926
0.00527651
0.0227365
0.0204312
0.0216549
0.0141196
0.0210586
0.0118863
0.0217285
0.0233731
0.0169528
0.0218841
0.0166871
0.0202494
0.0178151
0.0190706
0.0194685
0.0234662
0.0190688
2.90476e-05
0.0164752
0.0199728
0.00340389
0.0167513
0.0121533
0.0221253
0.0218669
0.00729732
0.0115003
0.00838807
0.0116568
0.00888826
0.0102713
0.0198183
0.0118508
0.00943296
0.0188063
0.0122568
0.0198438
0.00638968
0.00437321
0.00517126
0.0163089
0.0082377
0.00110382
0.0192037
0.0229202
0.0229146
0.00852967
0.0129488
0.00371946
1.88501e-05
0.0092852
0.0185752
0.0221869
0.0127839
0.00453085
0.013432
0.0172911
0.0136647
0.0226816
0.00859978
0.00320656
0.011721
0.00882093
0.00671519
0.0132288
0.0209908
0.00723676
0.0130056
0.0035745
0.013054
0.00784
0.0175134
0.011339
0.00429799
0.0179056
0.00670983
0.0148145
0.0189565
0.00902158
0.0173319
1.92518e-05
0.00853634
0.0177005
0.0136025
4.83674e-05
0.0168421
0.0145773
0.00561353
0.0179113
0.0127433
0.0181693
0.0222671
0.0192824
0.0219517
0.0227876
0.0215539
0.0214591
0.020091
0.0222872
0.0180569
0.00998136
0.0227696
0.0152308
0.000801591
0.00907567
0.0222738
0.0171252
0.0178922
0.00856517
0.0197006
0.00562664
0.00824379
0.0215028
0.012392
0.0119669
0.0073675
0.0217488
0.0189594
0.00982091
8.98435e-05
0.0064564
0.0225824
0.0229382
0.021418
0.0211499
0.0133025
0.0203721
0.0220394
0.0203343
0.0102311
0.0210318
0.0167716
0.0183895
0.0229965
0.00872648
0.0176062
0.0176588
0.0180887
0.00948919
0.0197787
0.0100059
0.0237495
0.0176137
0.023461
0.0163021
0.00769486
0.00687419
4.44916e-05
1.76354e-05
0.0184144
0.0166782
0.0101436
0.0223483
0.0060293
0.0194939
0.0177069
0.0189602
0.0192561
0.00840987
0.0197918
0.0178062
0.000744138
0.00590296
0.00277526
0.0106667
0.0174029
0.00917728
0.0041065
0.0227591
0.0161528
5.63347e-05
0.0164355
0.0229266
0.0120443
0.0206298
0.0143844
0.0123051
0.0140613
0.0211469
0.0179549
0.010853
0.0222551
0.0160776
0.0224922
0.0150688
0.022743
0.0113109
0.0180041
0.00812575
0.0201819
0.0186607
0.0185127
0.0175293
0.0103654
0.0119542
0.0216421
0.0202328
0.0220198
0.0228842
0.0171746
0.0217892
0.00265841
0.0018751
0.00737098
0.02281
0.0203373
3.81552e-05
3.82996e-05
0.00315532
0.00475914
0.009711
0.0188915
0.0151857
0.00870565
0.0229499
0.00899547
0.0231093
0.0177011
0.0224796
0.00912451
0.0228203
4.03573e-05
0.0227177
0.00507952
0.010976
0.0204009
0.00747469
0.0178715
0.00414778
0.0152809
0.017739
0.0189059
0.0071797
0.00453949
0.0185088
2.28984e-05
0.0132943
0.0188721
0.00572493
0.0223057
0.00863016
0.0205337
0.0187883
0.0225663
3.51253e-05
0.0215874
0.0084333
0.0213596
0.0216161
0.0227401
0.0226079
0.0223754
0.0209091
0.00944211
0.0141537
0.0169204
0.0151152
0.017612
0.02245
0.0229602
0.0221267
0.00820021
0.0176086
0.0226328
0.0177429
0.0222163
0.0237342
0.00524098
0.0202852
0.0181468
0.0204153
0.0112175
0.0179462
0.0197799
0.00842902
0.0116438
0.0226406
0.0224873
0.0025775
3.73351e-05
0.00416023
0.0212284
0.01809
0.00421446
0.021136
0.0186917
0.0225204
0.00994303
0.0158502
0.00582897
0.0225408
0.00931807
0.0153379
0.00601831
4.37642e-05
0.0185812
0.0207021
0.020326
0.000908673
0.0226294
0.0197315
0.0160045
0.0149239
0.0189652
0.0214691
0.0179705
0.0199532
0.0227113
0.00933991
0.0187697
0.00800667
1.97254e-05
0.0115216
0.019962
2.5601e-05
0.0132248
0.00600288
0.00621909
0.0193496
0.0194726
0.018293
0.0160708
0.00984321
0.0186414
0.010126
0.0223341
0.018965
0.0200785
0.0228159
0.00903989
0.0213046
0.0225219
4.36528e-05
0.00532162
0.0185124
0.0102571
4.71004e-05
0.00765559
0.0131222
2.3148e-05
0.00522685
0.0225529
0.0169315
0.0147613
0.0228561
0.0176228
0.0228922
0.0181615
0.0189258
0.0182107
0.00672253
4.9866e-05
0.0186384
0.00930601
0.0223549
0.0219406
0.0227936
0.00881974
2.1927e-05
0.0173215
0.0230249
0.00929798
0.00811847
0.00295425
0.0118148
0.0183168
0.0127914
0.0220587
0.0217956
0.0190245
0.0223776
0.0104502
0.0221576
0.0137321
0.0105368
0.000852555
4.52807e-05
0.0222562
0.0190737
0.0159048
0.0107521
0.0109586
0.0168733
0.0155461
0.00630552
0.00527589
0.00773873
0.00553619
4.87337e-05
0.00641866
0.0191937
0.0223732
0.0188534
0.00468954
0.0210543
0.0176807
0.0206052
0.0114284
0.0152252
0.0145446
0.00962764
0.00902195
0.0211563
0.00983511
0.0155543
2.16415e-05
0.0222267
0.00491675
0.0103518
0.00310136
0.0176371
0.0104564
0.0150774
0.00181358
0.0229035
0.0147067
0.017596
0.0223949
0.0225103
0.000642936
0.0199545
0.00134498
0.00627569
0.00339345
0.0227097
0.00544681
0.0228586
0.00987881
0.0171264
0.011176
0.0225883
0.0228945
3.48682e-05
0.0067035
0.0220052
2.38837e-05
0.0128208
0.02141
0.0218533
0.0215379
0.0100246
2.05606e-05
0.0196214
0.0212849
0.018582
0.0149945
0.0200489
0.0219633
0.0165791
0.0171299
4.59691e-05
0.0180962
1.98959e-05
0.0202044
0.00197071
0.00453066
0.0141678
0.0148492
0.0021361
0.0226531
0.0180335
0.0183623
0.0207438
3.05959e-05
0.0191686
0.0223613
0.0102631
0.00781868
0.00995028
0.0168474
0.00196561
0.0187849
0.0210889
0.022777
0.01027
0.0104789
0.0187203
0.0077128
0.0211486
0.00767833
0.00821527
0.000681882
0.0202158
0.0084312
0.0215867
0.0229251
0.000731947
0.00415517
0.0203968
0.0195122
0.0124312
0.0142004
0.0212472
0.0215686
0.0148605
0.0108885
0.0229336
0.0229391
0.00398206
0.021663
0.0110659
0.0229437
0.00407684
3.01704e-05
0.0179801
4.11978e-05
0.00989976
0.0199591
0.0113561
0.00888794
0.0121724
0.00845951
0.0164566
0.0210488
0.0200514
0.0227801
0.0224123
0.0107647
0.0186397
0.00577279
3.29449e-05
0.0224862
0.0191934
0.0202354
0.0205873
0.0209285
0.0212725
0.0233088
0.0187926
0.01871
0.0216193
0.0182684
0.0200691
0.019617
0.0186785
0.0211059
0.0215536
0.00236329
0.00858808
0.00870143
0.00920428
0.0183254
0.00294697
0.019564
0.00069851
0.0209591
0.0172452
0.00979239
0.0140201
0.0179718
0.0196949
0.0214058
0.00257742
0.0205943
0.0118297
0.0209051
0.0209486
0.0223234
0.0110962
0.009085
0.0156557
0.0174359
0.0205442
0.0227356
0.0192731
0.0126007
0.0155935
0.0176681
0.0202312
0.0207577
0.0191998
0.0113056
0.00113186
0.00381988
0.0145801
0.00418228
0.0112023
0.00755736
0.0133166
0.0141781
0.00930742
0.00205726
0.0215262
0.00605928
0.0106301
0.00603725
0.00184973
0.0155865
0.0194221
0.011191
0.019038
0.00077447
0.00794166
0.000930002
0.0189415
0.0171261
0.0110786
0.00603041
0.0196929
0.0074007
0.0140699
0.0211399
0.0221694
0.022087
0.017943
0.0177231
0.0226332
0.0229004
0.00564499
0.0228668
0.00981017
0.00978786
0.00251258
0.0206556
0.0135975
0.0141223
0.00196231
0.0177086
0.0136598
0.0229364
0.00444468
0.0112482
0.00917981
0.0177284
0.0194001
0.0206267
0.000838745
0.0116587
0.0158222
0.0192394
0.00832074
0.0108571
0.0209957
0.018321
0.0172276
0.00689478
0.0179712
0.0199495
0.00844095
0.0138227
0.0229244
0.00710899
0.0163403
0.0060104
0.0173305
0.00245363
0.0100965
0.0209796
0.0169003
0.00572271
0.01417
0.0219525
0.000714961
0.0098624
0.00106035
0.0126164
0.0113701
0.014557
0.0211
0.00629348
0.0178108
0.0222217
0.019635
0.0206045
0.0222029
0.00343975
0.00762761
0.00957142
0.0134105
0.0188404
0.0151625
0.0229661
0.0165499
1.82498e-05
0.0132963
0.0198797
0.0215857
0.010846
0.0178139
0.00720859
0.0181084
0.00616019
0.0225728
0.00814025
0.0199609
0.00846549
0.0167631
0.0208389
0.00912123
0.00268704
0.00097392
0.0179974
0.00319784
0.0128376
0.0109337
0.0167456
0.0159565
0.0135756
0.0159977
0.0213143
0.0179084
0.0102061
0.0167666
0.00990798
0.00476515
0.0202928
0.00942903
0.0184326
0.00877563
0.0228314
0.0220091
0.0222256
0.0201377
0.00581524
0.00629107
0.0174344
0.0140283
0.0201998
0.0202764
0.0174828
0.018725
0.0225651
0.0229017
0.0234927
0.0195169
0.0181139
0.00814842
2.67448e-05
0.0196062
0.0177992
0.0137261
0.00545019
0.0162663
0.01906
0.0225058
0.00535282
0.0202162
0.0229334
0.0229421
0.00380782
0.0225557
0.0185518
0.0198883
0.0149653
0.000221084
0.0109181
0.0211813
1.67931e-05
0.00361653
0.0228356
0.0108435
0.00586745
0.0221736
0.00984267
0.0183902
0.0223979
0.0181343
0.00372292
0.0189354
0.0137024
0.0101454
0.0226321
0.0208545
0.00463861
0.017861
0.00280441
0.0212616
0.0144033
0.015506
0.0233822
0.0123549
0.0072755
0.0221376
0.0181882
0.0123299
0.0195188
0.00763978
0.0034198
0.00575818
0.0175741
0.0184007
0.0224171
0.00854977
0.0185568
0.0182852
0.0193904
0.0153408
0.0223293
0.0237886
0.0183132
0.02191
0.0120359
0.00986478
0.0162766
0.0202245
0.00567604
0.0199436
0.0176413
0.0173778
0.00121633
0.0229465
0.0194824
0.00401872
0.0184711
0.0225099
0.0220614
0.00993104
0.0225486
0.0134126
0.00706388
0.020492
0.00773273
0.0171731
0.0231298
0.00605244
0.00888588
0.00383677
0.0179893
0.0138168
0.0173604
1.92255e-05
0.00568063
0.0228795
0.0145063
0.022732
0.00974235
0.0225391
0.0225073
0.0208348
0.0185565
0.0191286
0.0228689
0.00344714
0.0192365
0.0205526
0.022709
0.0198132
0.0009606
0.0130252
5.24794e-05
0.0186636
0.023327
0.00537999
0.022597
0.0221062
0.0189877
0.0229666
0.0228474
0.0161964
0.0183933
0.0194561
0.013301
0.00935006
0.00480269
1.09236e-05
0.0117252
0.0219726
2.77325e-05
0.00229272
0.0147915
0.00111222
0.00188116
0.00413063
0.0118295
0.0190659
0.00351097
0.0177054
0.00960526
0.0186026
0.0179293
0.0210526
0.0187645
0.00796141
0.015507
0.00131221
0.0218914
0.0235443
0.0219183
0.016059
0.0178237
0.0196237
0.0168502
0.010992
0.0171827
0.00491047
0.0230088
0.022343
0.00971923
0.0185908
0.0177837
0.0162477
0.0179668
0.0156809
0.000769034
0.0207504
0.0213077
0.0133705
0.0172403
0.0106799
0.0111051
0.013197
0.0181992
0.0191237
0.0141469
0.00805497
0.0207839
0.0189187
0.00702245
0.0192407
0.0204304
0.0144778
0.0208544
0.00408578
0.0204827
0.00992443
0.0200966
0.023109
0.0180319
0.0197437
0.0215738
0.012429
0.0178955
0.0178145
0.0182223
0.0131784
0.00871744
0.0185013
0.0155119
0.00882109
0.0116453
0.0196811
0.010078
0.00705695
0.00376511
0.022863
0.00555831
0.0181409
0.00948508
0.0189395
0.0126759
0.00284582
0.00591686
0.0226535
0.0229819
0.0111233
9.89618e-05
5.92329e-05
0.0186222
0.00375519
0.0182556
0.0215079
0.00685881
0.012905
0.0188929
0.0112848
0.0171539
0.0221091
0.00565909
0.00255592
0.0120909
0.0186452
0.0216399
0.0171523
0.0187263
0.0209889
0.0186982
0.00787157
0.00826105
0.010015
0.0187836
0.018185
0.0081768
0.00992522
0.0112671
0.0160153
0.00800354
0.00877233
0.0227225
0.022692
0.0176772
0.0193029
0.0194935
0.00103045
0.0113661
0.0227832
0.0229963
0.0228738
0.01827
0.0167158
0.000872301
0.00895062
0.0180759
0.0177942
0.0180212
0.000675829
0.0123417
0.010322
0.0226195
0.0122056
0.0224987
0.0180226
0.0120838
0.021601
0.00291592
0.0168054
0.0194282
0.00849198
0.0203864
0.0055181
0.00748687
0.0166899
0.00878091
0.0220776
0.0163164
0.00415029
0.0144525
0.0185343
0.00801063
0.00737843
0.0223576
0.0197416
0.00722187
0.000773296
0.0192569
0.0117129
0.00878002
0.0154384
0.00105194
0.00763684
0.00103688
0.00741126
0.00592473
0.00610248
0.00921635
0.0117509
0.00868856
0.010943
0.0179026
0.0197268
0.0195324
0.0118666
0.0194493
0.00882022
0.00117453
0.0210831
0.0200365
0.0177949
0.0179678
0.0198115
0.0092457
0.0134164
0.0128681
0.0144527
0.0101528
0.00958625
0.0193826
0.0189237
0.00955151
0.0179875
0.0217807
0.0223707
0.0187239
0.0008838
0.0226295
0.0029647
0.0227452
0.0219757
0.00215773
0.0182419
0.0133702
0.00875385
0.0103198
0.00686636
0.0213469
0.0227297
0.018407
0.0177171
0.0157226
0.00698674
0.00618754
0.0188698
0.00361222
0.00877781
0.00675394
0.022612
0.0215308
0.0198577
0.0178626
0.0103135
0.0160235
0.00948009
0.0177092
0.00728087
0.0125372
0.0176592
0.0114713
0.00970266
0.0179371
0.0112283
0.0114361
0.0129663
0.0167768
0.00124538
0.0177419
0.0180505
0.0169001
0.0118276
0.0219423
0.00649987
0.0129969
0.00564796
0.0179055
0.0225091
0.00925231
0.0181905
0.0222395
0.0131787
0.00479607
0.0201275
0.0131872
0.0178348
0.00864185
0.0123301
0.0227194