/*--------------------------------*- C++ -*----------------------------------*\
  =========                 |
  \\      /  F ield         | OpenFOAM: The Open Source CFD Toolbox
   \\    /   O peration     | Website:  https://openfoam.org
    \\  /    A nd           | Version:  10
     \\/     M anipulation  |
\*---------------------------------------------------------------------------*/
FoamFile
{
    format      ascii;
    class       volScalarField;
    location    "850";
    object      p;
}
// * * * * * * * * * * * * * * * * * * * * * * * * * * * * * * * * * * * * * //

dimensions      [0 2 -2 0 0 0 0];

internalField   nonuniform List<scalar> 
23845
(
-0.127698
-0.169955
-0.254497
-0.251422
-0.147481
-2.03619e-05
-0.238922
-0.256805
-0.000833253
-0.0863186
-0.0163169
0.000210112
0.000614309
-0.000328787
-0.246282
-0.0419829
0.00107492
0.000486955
-0.00106268
0.000566845
-0.146581
-0.0150002
-0.191734
-0.000394182
-0.0487749
-0.000109867
-0.215826
0.00310268
-0.264473
0.000403865
-0.247232
-0.24354
-0.256856
0.000179925
0.000324043
0.000717961
-0.253705
6.47476e-05
0.00105358
0.000187994
-0.00500159
0.00141222
0.000249958
0.000108356
0.000113357
0.00111815
-0.165092
-0.0322736
-0.236513
-0.2672
-0.244457
-0.24698
-0.236581
0.000926125
-0.246101
0.000589437
-0.194672
-0.253978
-0.14993
-0.231205
-0.262849
0.0025179
-0.0273871
-0.265078
-0.000212468
-0.001285
-0.227639
-0.000729064
-0.00172561
-0.00342375
-0.259299
-0.258985
-0.000428958
-0.245783
-0.00124909
-0.247417
0.000265487
-0.000407088
-0.253564
-0.000666619
-0.19862
-0.239363
-0.18101
-0.257588
-0.250564
0.000404398
-0.233906
-0.234067
-0.000662456
-0.00119361
-0.248894
-0.0121781
-0.266628
0.00185944
-0.251012
-0.253245
-0.00159597
-0.0374687
-0.000326263
-0.148267
0.000277077
-0.242117
-0.110405
-0.274735
-0.269238
-0.256574
-0.000353939
-0.00104559
-0.229132
0.00153923
-0.0127306
-0.000375333
-0.25485
-0.0621793
0.000574073
-0.127817
-0.000425074
-0.066401
-0.263332
-0.262854
0.000275129
-0.247608
-0.00399247
-0.261312
-0.233366
0.00130383
-0.261963
-0.26846
-0.257233
-0.186627
-0.258933
-0.0592733
-0.038306
-0.000397176
0.00131231
-0.117951
-0.27269
0.000252016
-0.224158
2.73936e-05
-0.263277
0.000877706
0.000492129
0.00050881
-0.0167201
0.00113631
-0.0990895
-0.245819
-0.262419
-0.00477716
-0.241899
0.000826707
-0.223734
-0.000854684
-0.254617
-0.00842342
-0.119272
0.000353338
-0.259672
-0.258031
-0.00786123
-0.250005
-0.249768
-0.000305968
-0.00167106
-0.00316547
-0.000567462
-0.250531
-0.000965381
0.000843954
-0.000894338
-0.252634
9.88202e-05
-0.261034
-0.000458738
-0.252557
-0.017588
-0.0171896
0.000643113
0.000546812
-0.142011
-0.145038
-0.243632
-0.00971164
-0.02508
-0.000217637
0.0021951
-0.257015
-0.265649
0.000849724
-0.267143
-0.00181647
-0.000306523
-4.39801e-05
-0.0144387
-0.000597157
-0.272188
-0.267323
-0.282041
-0.0156727
-0.00182936
-0.00112871
-0.262528
-0.0512619
-0.257203
-0.250859
-0.256232
3.22058e-05
-0.172492
0.000771933
-0.00212058
-0.25511
-0.0278532
-0.00187162
-0.239956
-0.250505
-0.0466789
0.00151935
-0.264977
-0.258329
0.000519289
-0.247635
-0.272466
-0.00952968
0.00168677
-0.247929
-0.267914
0.00124311
-0.000276309
-0.0059408
0.00082346
-0.237412
0.000539431
8.38177e-06
-0.133224
-0.262627
-0.000286875
-0.248263
0.00242151
-0.256175
-0.235768
-0.0797335
-0.255505
-0.124306
-0.24841
-0.0327921
-7.25141e-05
0.00210046
-0.251344
-0.24148
0.00157072
0.000648602
-0.245497
2.05877e-05
-0.236987
-0.251196
-0.262433
-0.251269
0.000285829
-0.000438844
-0.232431
-8.53247e-05
-0.261246
-0.0102762
-0.00719705
0.00137034
-0.251811
-0.262672
-0.233756
-0.250305
0.00033147
-0.254506
-0.241928
0.000875367
-0.0110729
-0.000398419
-0.250766
0.00210992
-0.278094
-0.192913
-0.257238
0.000454138
-0.246703
-0.0104042
0.000447359
-0.263404
-0.258669
1.09851e-05
-0.252163
-0.251436
-0.252262
-0.240191
-0.264651
-0.251449
-0.25217
0.000325027
-0.263611
-0.000401085
0.000246592
-0.260527
-0.262521
-0.244636
-0.26331
-0.249255
-0.000316703
-0.248165
-0.266998
-0.242927
-0.000737343
-0.271245
-0.241181
-0.219948
-4.95451e-05
0.00354554
-0.254166
-0.264685
-0.263394
-0.0354337
-0.252339
0.000163025
-0.270155
-0.252952
-0.262211
0.00103122
-0.250425
0.000266201
-0.252229
-0.196064
-0.263223
0.00140573
-0.248552
-0.0120597
-0.247107
9.9565e-06
-0.25992
-0.249099
-0.250703
5.59309e-05
0.00105067
-0.252387
-0.253877
-0.262305
-0.0152464
0.000752303
0.000491342
-0.282147
0.000289278
-0.251795
-0.252781
-0.246221
-0.247378
-0.263138
-0.268795
-0.249069
-0.236526
0.00228188
0.000913348
-0.00118325
-0.250647
-0.253578
-0.25953
0.00253722
-0.0928203
-0.00839931
-0.264734
-3.66814e-05
-0.260371
-0.000911275
-0.262085
0.000363902
0.00139641
-0.250633
-0.27159
9.60427e-05
-0.000529765
-0.249435
-0.252529
-0.249768
0.00126598
-0.256843
-0.247863
0.000665415
-0.179533
-0.000441913
6.36076e-05
0.000577607
0.000728645
-0.251797
-0.00137302
-0.252097
-0.230606
0.00193633
-0.267497
-0.270755
-0.240614
-0.25823
-0.00637887
0.000144804
-0.00403359
0.000244984
-0.252947
-0.237434
-0.250293
-0.255262
-0.22299
-0.246147
-0.000198652
-0.268818
-0.26787
-0.262549
-0.250811
0.00107249
-0.234337
-0.262762
-0.12103
-0.253613
-0.231202
-0.00819321
0.000661226
-0.121621
-0.264118
0.000687998
0.00032744
-0.2529
-0.261775
-0.157737
-0.27257
-0.24515
-0.260554
-0.260291
-0.000506766
0.000316327
-0.262251
0.000628352
0.000522451
0.000348238
0.000850913
-1.35461e-05
-0.26442
-0.260443
-0.249074
-0.268414
-0.269675
-0.262594
-0.241756
-0.263929
0.00102824
-0.219549
0.00123235
-0.254992
-0.254496
0.00162828
-0.275621
0.000767826
-0.000698812
-0.260817
-0.22055
-0.0572736
-0.250566
-0.00256731
-0.193704
-0.252429
-0.270599
-0.20896
0.00145254
-0.000151526
0.000269214
-0.238506
-4.56876e-05
-0.255331
0.00172613
-0.000460684
-0.240447
-0.26236
-0.265887
-0.123164
-0.000875625
-0.246292
-0.000551589
-0.00418629
-0.195031
-0.222137
-0.245895
-0.0159427
-0.00129567
-0.244148
-0.000106536
0.000328495
-0.248892
-0.261729
-0.000352773
-0.262405
-0.251722
-0.21114
-0.2588
-0.176524
-0.000759545
-0.255151
-0.000153663
0.000451771
-0.233323
-0.260581
-0.261374
-0.186313
-0.256639
-0.255223
-0.00847441
-0.000545582
8.38314e-06
-0.26158
-0.246042
-0.262395
-0.254626
-0.243548
0.00129676
0.000343271
-0.230026
-0.255199
-0.254469
0.00680227
-0.247188
-0.000125562
0.000624021
-0.264824
-0.000904551
-0.248074
-0.253238
-0.264664
-0.177074
-0.259471
-0.261083
-0.269381
-0.0931988
-0.18961
0.000248782
-0.000557341
-0.00104606
-0.263539
-0.148102
-0.254048
-0.258965
0.00322818
-0.178412
-0.179014
-0.0115754
-0.177364
-0.0179677
0.00372619
-0.000205602
0.00102524
-0.00153347
0.000339173
-0.26076
-0.00104442
-0.255158
-0.206163
0.00155842
-0.261184
-6.50623e-05
0.00220721
-0.251123
-0.252821
-0.205388
-0.000344895
0.00295655
-0.271626
-0.268729
-0.000955622
-0.264665
3.59413e-05
-0.00042787
-0.24406
-0.000649761
0.000890909
-0.0507335
-0.124761
-0.262749
-0.249569
-0.251216
-0.147325
-1.5174e-05
0.000292292
-0.0121053
-0.249508
-0.263906
0.00206864
0.000873407
0.000883712
-0.249544
-0.00142104
-0.199612
-0.250476
-0.152985
-0.00740187
-0.255523
-0.000663168
-0.000723273
0.00337521
0.000741987
0.000337642
-0.252783
-0.000253219
-0.121098
-0.247315
-0.257441
-0.0463549
-0.249041
-0.134555
-0.241116
-0.00742871
-0.193148
-0.123296
-0.201988
-0.122642
-0.263641
-0.122048
-0.0665575
-0.102937
0.000396051
-0.000785098
-0.12542
-0.259439
-0.158291
-0.00286526
-0.14965
-0.000965353
-0.00393094
0.000941068
-0.00125427
-0.0541981
0.000662371
0.000873048
-0.211856
-0.000323351
0.000324817
-0.254746
-0.113423
-0.0594647
-0.000418714
-0.00779172
-0.183915
-0.00231601
0.00162691
-0.000487226
-0.115563
-0.0369461
-0.144486
5.63559e-05
-0.0417068
-0.255261
0.000450155
0.000544715
-0.072811
-0.256063
-0.264095
-0.26687
-0.262001
-0.0432925
-0.262174
-0.0147441
-0.00371751
-0.00106567
-0.0003541
-0.146233
-0.000398927
-0.0013506
-0.0010462
-0.114996
-0.237334
-0.0282951
-0.0439694
-0.00279891
-0.0112228
-0.00708507
-0.00345207
-0.0442868
-0.00115662
-0.0614573
-0.0125868
-0.000158537
-0.0187515
0.00106492
0.00309825
0.000518517
0.000429573
-0.0432425
0.000498238
0.00163936
-0.0367419
-0.0374662
0.00198795
0.000579527
-0.00476757
-0.00889099
-0.0140269
-0.0219258
-0.0376643
-0.0016319
-0.0542921
-0.00106121
-0.0183619
0.000530724
-0.00937421
0.000641332
0.000744634
0.000114268
8.3381e-05
0.00125852
0.000797042
-0.00110097
0.000154312
-0.235101
0.00183681
0.000715897
0.000371206
0.000978556
0.000216535
-0.0068388
0.00172435
-0.0089815
-0.015219
-0.000494685
0.00210361
-0.000226971
0.000522367
-0.0261335
-0.0110183
-0.0807352
0.00211464
-0.00690049
0.00091515
0.00086393
0.00086023
0.00030545
-0.0311989
0.00210034
-0.106867
0.00172513
-0.000200493
-0.000632498
-0.000866945
0.00131586
0.000292114
-0.260917
0.0011952
-0.00105472
-0.0670402
0.000991429
0.000919671
0.00103421
-0.235721
-0.0034817
-0.000196322
-0.0404499
0.00156139
-0.261131
-0.0209964
-0.0142376
-0.0281474
-0.0180458
-0.0517882
-0.00424462
-0.00174796
-0.00495089
-0.0138825
0.000188784
-0.00765721
0.0014082
-0.161055
-0.000299254
0.000712168
-0.0380111
-0.0230685
-0.0301862
-0.252446
-0.00831471
-0.00312429
-0.103828
-0.0130558
0.0017137
0.000890586
0.000117253
-0.245349
0.00237614
-0.00682624
0.00199412
3.42279e-05
0.00149114
0.0026906
0.00105545
0.00120331
-0.000198861
0.000375584
0.00111063
0.00164886
0.00124475
-0.183431
0.00137654
0.00140303
0.00209115
0.00294023
0.000640038
-0.0595519
-0.00261478
-0.0142806
-0.00120539
0.00345506
0.00170201
0.000578048
0.00436553
-0.127678
-0.0273594
-0.0253974
0.000964548
0.000548692
-0.00311992
-0.265154
-0.00829594
-0.00534428
-0.015226
-0.000441454
-0.0010426
-0.0256952
-0.00165843
-0.00186536
-0.000297465
-0.0036698
-0.00112962
-0.000227285
-0.000784395
-0.00107568
-0.000209903
-0.00141001
-0.00458644
-0.000823045
-0.0014846
-0.0406855
0.00140681
-0.00138862
-0.256324
-0.0435798
0.000430189
-2.74633e-05
0.000771564
-0.0240333
-0.0125322
-0.0156518
-0.00747396
0.000511561
-0.00857741
-0.0051868
-0.00865143
-0.030778
0.000158495
0.00194246
-0.000318944
-0.00101612
-0.00644509
0.00033937
-0.246938
0.000499109
-0.0268961
0.00345541
-0.0637977
0.000863538
-0.00098409
-0.0213282
-0.00793612
-0.08734
-0.0581873
-0.0101332
-0.105517
-0.00151565
-0.00316073
0.000217934
4.47669e-05
-0.000362836
-8.00184e-05
-0.00048154
0.0010466
-0.00074312
-0.0243711
0.000880892
-0.0236247
-0.0306679
-0.0178236
-0.0114263
-0.0963379
-0.0091107
-0.000355149
-0.0240362
-0.000134636
-0.0647453
-0.00354655
-0.000394935
-0.114857
-0.0036696
-0.000366368
-0.00788279
0.00100497
0.000849963
-0.232406
-0.000809074
0.000953788
-0.00157876
0.000768533
0.00132082
0.000588177
-0.00796686
-0.268708
0.000522639
0.000102072
-0.00368752
-0.00647323
-0.10992
-0.0129662
0.00167713
-0.0135896
0.000317547
0.00338388
-0.257182
-0.272536
0.00125119
-3.15096e-05
0.00319982
-0.222724
0.000388744
-0.250701
0.00202477
-6.6862e-05
-0.00295681
-0.00195256
0.000968219
0.000863435
0.00128452
-0.0999496
0.00054171
-0.139218
-0.0105177
-0.0409192
-0.000162144
-0.00997068
-0.00105676
-0.00591942
-0.00171789
-0.000478031
-0.019569
0.00058456
-0.0112009
-0.0167544
-0.0252833
0.00346884
-0.00988433
-0.0136345
0.000269784
-0.0305944
-0.0171308
-0.00738621
-0.0388397
0.000447994
0.00149476
0.000952928
0.00149413
0.00147689
0.000477206
-0.00943407
0.000462251
0.00103984
-0.00595796
-0.00521933
-0.00570145
1.81853e-05
-0.211041
0.00138807
0.000190457
0.00157891
0.00106696
-0.000909833
-0.00206033
-0.0119072
-0.0969161
-0.134161
0.000286893
-0.00164685
-0.0202259
-0.039715
0.00178054
-0.0452216
-0.00107824
-0.00304582
-0.0093175
-0.0403295
-0.00105679
-0.0122041
-0.0265888
-0.0130783
-0.0313512
-0.0231204
-0.0288651
0.00158706
0.00165586
0.00223392
0.00121538
-0.00721139
-0.0130207
0.000286228
-0.281235
0.000699911
-0.256193
0.000274927
0.000542716
-0.269511
0.0010514
-0.00130288
8.2453e-05
-0.0001878
-0.00187623
0.000894578
0.00158692
0.00129503
-0.0444066
-0.263767
0.000859454
-0.00100664
-0.0046049
-0.179108
-0.203751
-0.127027
-0.0164875
0.000717222
-0.00149098
0.00262348
0.000490977
-0.00042592
0.00277362
-0.134462
-0.0932712
-0.0376595
-0.0846474
-0.056201
-0.103271
-0.123997
-0.0383025
0.00152144
-0.0717302
-0.0207974
-0.0289144
-0.0271864
-0.00949192
-0.015924
0.000771672
-0.0114821
0.00215006
-0.00691088
-0.000978413
0.00029697
0.00132126
0.000334253
0.00139762
0.000548284
0.000102287
-0.00245176
-0.165296
-0.0606244
0.0008472
-0.0902957
0.000754607
-0.00217774
0.00386559
0.000337882
0.000796399
0.00305316
-1.47703e-06
0.00189925
-0.00302894
-0.000429828
-0.118171
-0.00148092
0.00126591
-0.0816874
-0.000507217
-0.000718338
-0.00348294
-0.0487525
-0.00121709
-0.259044
-0.254551
0.000577656
-0.00859101
-0.0116958
-0.0215339
0.000413977
0.00155618
-0.0126539
-0.00498601
-0.00871469
-0.00514078
-0.00196751
0.00101922
-0.275575
0.000809926
-0.034305
0.00108424
0.00111628
-0.053199
-0.000217809
0.000141742
-0.263522
0.00152357
-1.33116e-05
-5.879e-05
0.00162273
0.00207639
0.00101087
0.00128961
0.00123225
-0.0706142
0.00213558
0.00191828
-0.191476
0.000578897
0.00179242
0.00171053
-0.215803
0.000361597
0.000387112
-0.0846633
0.000360686
-0.00154226
0.00126323
-0.000273215
-0.00013197
-0.261079
-0.00101511
0.00193224
-0.00891814
-0.0206904
-0.0918463
-0.0140518
-0.00539545
-0.000517783
0.00141798
0.00118296
-0.00157143
0.00141674
-0.059372
0.00132476
0.000892464
-0.000404972
-0.000183094
0.000933213
-0.246748
-0.259574
0.00131673
-0.000349264
0.00022373
-0.170064
0.000693005
-0.000648399
-0.0165026
0.000703095
-0.251174
0.000707272
0.00211086
0.000591618
-0.00135895
-0.000190206
-0.00266074
-0.0116847
9.77937e-05
-0.0269554
-0.00189596
0.000997417
-0.00344798
0.00243108
-0.00181236
-0.0106092
-0.00452702
-0.0113664
0.000886845
0.00142906
-0.000103548
-0.002275
-0.00221996
0.00188034
-0.00400041
-0.00317915
-0.0397018
-0.000454057
-0.000635332
-0.0626584
0.000142102
-0.00243686
-0.0942815
4.24975e-05
-0.00188337
-0.134764
-0.00120543
-0.000454223
-0.111677
-0.0569316
-0.175988
-0.000985836
0.00399052
-0.0640146
-0.000364384
0.000545506
-0.111796
-0.0295823
-0.0511449
0.000848516
-0.077129
0.00062662
-0.00211958
-0.0483244
-0.016177
-0.0003093
-0.0138449
-0.0743039
-0.279356
-0.000123067
0.000405192
0.000320903
0.000703611
0.00163155
0.00199396
0.0017838
-0.24744
0.00062241
-0.00132224
-0.051893
4.74011e-05
-0.0254464
1.69592e-05
-0.158407
-0.00018421
-0.00109888
-0.180442
-0.000651602
0.00278634
0.000240239
-0.00191103
-0.262715
0.000943515
-0.103736
-0.0030471
-0.0255123
-0.259822
-0.252843
-0.0558872
0.00145764
0.000548858
-0.1861
0.00190364
0.00333804
0.000249886
-0.128046
0.000948054
0.000650043
-0.000312323
-0.110047
-0.0013532
0.0011731
-0.000660196
-0.00174219
-0.267122
-0.00345473
-0.00452542
-0.096215
0.000194779
-0.261678
0.000258828
-0.256806
0.00119065
-0.112217
-0.000769397
0.00164419
0.000718778
-4.73966e-05
-0.00383959
-0.0042412
-0.00988696
-0.0251543
0.000475283
0.00107633
0.000998846
-0.0242989
-0.0219748
-0.000248752
0.000687752
0.00082227
-0.00069284
-0.00492046
-0.00504645
0.00297826
-0.00802468
-0.00640368
-0.0891609
-0.000970174
-0.171955
-0.00154486
-0.00366385
0.0015684
0.00217455
-0.254866
-0.0657548
-0.0338062
-0.000246976
-0.0477779
0.000198834
0.00117778
-0.0703479
0.000775161
-0.226813
-0.262236
-0.0976525
-0.00459734
-0.000119448
-0.263801
-0.00281435
-0.00780439
-0.00161672
-0.0577121
-0.198677
-0.00170598
0.000997168
-0.25088
-0.250759
6.44159e-05
-0.0848954
-0.101415
0.000792415
-0.260625
0.000968387
-0.115252
0.0006041
-0.0707366
-0.000338733
-0.0568073
-0.203872
0.000842082
-0.255393
-0.104152
0.000465689
-0.262589
0.00124546
-0.0522832
-0.0966903
-0.254927
-0.000270233
-0.0301547
-0.178198
0.00249724
-0.0891974
0.000935376
0.00218596
0.00335538
-0.00507227
-0.0761271
-0.000330098
0.000475557
-0.138514
-0.00336668
0.00112195
0.00191916
0.000103139
0.00112058
0.00179112
-0.0770429
-0.217199
-0.0804553
0.000963443
-0.0045327
0.000597585
-0.000263431
-0.00383635
0.000284224
-0.258527
-0.000839714
-0.086175
-0.258187
-0.000330787
0.000507652
-0.00995257
-0.0293562
-0.0940523
-0.180691
-0.00994808
0.00146039
-0.00405299
-0.0014509
0.00105713
0.000876029
-6.75453e-06
0.000241774
0.000811217
-0.0919801
-0.261206
0.000353582
-7.56946e-06
0.00219861
-0.213603
0.000795314
-0.00503956
-0.00135815
0.00135837
0.00198147
-0.0029976
-0.0246031
-0.0253538
-0.00170887
0.000240493
-0.00500578
-0.243288
-0.254234
-0.000217995
0.00760386
-0.0238702
-0.000343307
0.000247747
0.000135101
0.000437592
-0.004634
-0.00294379
-0.261667
-0.000479216
-0.245473
0.000691859
0.0013945
-0.19327
-0.0039241
-0.0874911
-0.00266393
-0.00977127
-0.0153257
-0.00637111
-0.00284375
-0.0709692
0.0025094
0.00111746
0.00149775
-0.00164815
-0.253005
-0.0043787
-0.000861264
-0.00433448
-0.0560274
-0.253423
-0.0107604
0.00178826
-0.215338
0.000852871
-0.000173313
-0.0291532
-0.203093
-0.260221
-0.263515
-0.00215495
0.000394964
-0.0223263
-0.000309083
-0.214657
-0.0640064
0.00154364
-0.00836717
-0.144719
0.000276455
-0.216093
-0.00889255
-0.0396195
-0.00292119
-0.131474
-0.080662
0.00089874
0.0012049
-0.261057
0.00279086
-0.000419081
-0.0944429
0.001535
-0.008454
-0.0936642
-0.0443314
-0.256422
0.000180224
-1.83797e-05
0.00186931
-0.259782
0.000956448
-0.00167581
-0.00193813
-0.258413
0.000973858
-0.00105425
-0.00124542
-0.259879
-0.047515
0.000402693
-0.00488916
0.000225343
0.000849716
0.00253883
-0.236199
-0.0188116
7.72775e-05
0.00121475
-0.155522
-0.0413494
-0.000779551
-0.0146336
0.000306417
0.0008758
-0.258274
0.00239208
-0.0288461
0.000401452
-0.0165173
-0.256729
-0.260427
-0.257097
-0.233821
-0.208854
0.000211601
-0.0886151
0.00141119
-0.00021298
0.00143152
-0.205781
0.00108568
-0.244969
-0.265619
0.00114756
0.000671399
-0.243869
-0.263384
-0.0780105
-0.234628
-0.10139
-0.204925
0.000373894
-0.0972891
-0.268117
0.00131651
-0.245623
0.000653658
0.000449582
-0.174529
-0.265426
-0.26049
-0.188891
-0.155503
-0.000345122
-0.269984
0.00062018
-0.108418
0.000617374
-0.216325
-0.0722872
-0.00187396
-0.164778
0.000476434
-0.000610373
-0.000377493
-0.268456
-0.245868
-0.256521
-0.258838
0.000481212
-0.150941
0.000873746
0.00298147
-0.000367195
-0.0436858
-0.260162
0.00088985
-0.00185785
-0.186312
-0.243849
-0.00942092
0.00046862
-0.252825
0.00130721
0.0010568
0.000344029
-0.000245705
0.00112981
-2.53276e-05
0.00143494
-0.244204
0.00100811
0.0022794
9.55463e-05
-0.0353392
-0.253547
-0.0958196
0.000147655
-0.25553
-0.0671828
-0.0502942
0.000260563
-0.264692
-0.00511408
-0.26946
-0.256946
-0.25781
0.00316568
0.000998267
-0.192698
-0.161442
-0.000439042
0.000528335
-0.150775
-0.172582
-0.214114
-0.0126058
-0.26626
0.00367088
-0.254183
-0.00181632
-0.25512
0.000883141
0.00133752
-0.00288531
0.00154854
-0.261183
-0.00148443
-0.252498
-0.256245
-0.00656895
-0.0164977
-0.104437
-0.266424
-0.158694
0.000452195
-0.0709918
-0.0670177
-0.191784
-0.000540804
-0.252771
-0.13555
-0.251988
-0.258459
5.83126e-05
0.000531982
-0.0490448
-0.251884
-0.00609716
-0.173493
0.00184215
0.00181947
0.00123709
-0.000859639
-0.262932
0.000456849
0.000419569
-0.214144
-0.0318216
-0.206464
-0.17968
-0.264445
-0.25316
-0.173239
-0.240718
-0.248068
-0.0772845
-0.0104505
-0.264706
-0.000392007
-0.250787
0.000917676
-0.261924
-0.264492
0.00142683
-0.000531266
-0.000844052
0.00231099
0.000506951
-0.000177518
-0.00324657
-0.000233231
-0.164741
-0.13618
0.000656524
-0.073422
-0.0474933
-0.246193
-0.26382
-0.253039
-0.255657
-0.256976
-0.193426
-0.26746
-0.0218937
9.91128e-05
-0.264562
-2.59878e-05
-0.24459
-0.0767342
-0.00523707
-0.26078
-0.0571313
-0.00080576
-0.254098
0.00057897
-0.222811
-0.119996
-0.0257964
-0.242565
0.0031089
-0.149594
-0.00235153
0.00109027
-0.208903
-0.278892
-0.00156722
-0.00295636
-0.00257673
-0.00698381
0.00139509
-0.250004
-0.00351962
-0.00161478
-0.191056
0.00021747
-0.259783
-0.0242591
0.00215188
-0.0402126
-0.256037
-0.262862
-0.259285
-0.2605
-0.235915
0.000473936
-0.241002
6.42866e-06
0.000260384
-0.250807
0.000298312
-0.256355
-0.205239
-0.217098
-0.257795
-0.00682902
-0.242574
0.0015377
0.00129736
0.000361311
-0.00420788
-0.253298
0.00136083
0.000972154
-0.00413341
-0.2482
0.000147792
-0.240916
-0.255953
-0.00135655
-0.26514
-0.258188
-0.203507
0.000527693
-0.256932
-0.00124627
-0.00012086
0.00155676
-0.259685
0.00136976
0.00183088
0.000871579
-0.101833
-0.000119653
-0.252235
0.00112116
-0.000547048
-0.0162638
0.000288332
-0.214222
-0.00045027
-0.000577383
-0.160673
0.000729761
0.000214539
0.000534524
-0.260515
-0.0280773
0.00105078
-0.268497
-0.197624
-0.20174
0.00102304
-0.000736596
-0.2493
-0.198723
-0.24179
-0.179378
-0.246795
-0.24335
0.00321597
-0.251238
-0.224162
-0.000450836
-0.257027
0.000119728
-0.262503
-0.261972
-0.260229
-0.0356065
-0.225074
-0.279762
-0.000823808
0.000379629
0.00047298
-0.247884
-0.251538
-0.244976
-0.270777
-0.221094
-0.00683703
0.00105121
-0.216456
-0.261772
-0.252357
-0.00869178
-0.144878
0.000506388
-0.254363
-0.266814
-0.257816
-0.260257
-0.26011
-0.253621
0.000376523
-0.245552
-0.254652
-0.273938
-0.233828
-0.257339
-0.0146878
-0.253181
-0.261603
-0.000864609
-0.244562
-0.238469
0.00262722
-0.251831
-0.00819321
-0.274855
-0.247968
-0.194242
-0.204145
-0.251312
-0.0153769
-0.201444
-0.253216
0.000707869
-0.222467
-0.00029109
-0.00011376
-0.0757056
0.00222493
-0.000499014
-0.0672479
0.000590809
0.0008555
0.000220021
-0.000546415
-0.210977
0.0013517
-0.0932104
-0.273218
-0.259596
4.6474e-05
-0.0169995
-0.000616596
-0.247626
-0.000397224
-0.254531
-0.233198
-0.0231924
-0.243053
-0.257393
-0.247276
-0.0650348
-0.00187118
-0.232536
-0.233211
-0.260069
0.000638363
0.000324521
-3.04768e-05
-0.0149323
-0.211359
-0.000402826
-0.000145857
-0.000128952
-0.260854
0.000326712
-0.0228283
-0.00708306
-0.00263203
-0.261254
-0.00722429
-0.00195873
0.000434725
-0.218225
-0.000159668
-0.249644
0.000660751
-0.0115833
0.00125714
-0.033524
-0.260899
-0.262926
-0.253585
-0.272057
-0.0192652
-0.0230766
-0.243528
-0.000177573
-0.261543
-0.00527916
-0.000492015
-4.84729e-05
-0.147962
-0.238599
0.000463297
-0.160941
-0.274133
-0.254551
-0.25792
-0.225887
-0.0022209
-0.260515
-0.263756
0.000831804
-0.0525476
-0.234067
-0.159972
0.000124016
-0.25431
-7.01491e-05
-0.226132
-0.158574
-0.245939
0.000297989
-0.00379201
-0.244845
-0.0010578
-0.0447514
0.00375191
-0.220077
0.000526444
-0.254291
-0.000266916
-0.244102
0.00231584
0.00153448
0.000688457
-0.00918153
-0.233434
-0.249879
-0.00175144
0.000269463
-9.81946e-05
-0.000149913
-0.0241045
-0.000741222
-0.24045
-0.266488
-0.243327
0.000363732
-0.00110849
-0.255775
-0.248616
-0.240445
-0.264871
-0.23511
0.000462378
-0.229598
-0.23445
-8.67194e-05
-0.238789
-0.0347237
-0.061096
0.00139807
-0.225666
-0.000449078
-0.253264
0.000568661
-0.260404
-0.251089
-0.00150771
-0.24297
0.000961733
-0.26178
-0.215047
-0.00412365
-0.000276346
-0.244381
-0.26018
-0.00240154
-0.274673
-0.197915
-0.00158374
-0.263326
0.000803671
-0.262115
0.00146151
-0.00216176
-0.00422426
-0.232479
0.000215579
-0.255634
-0.0307434
0.000653104
-0.000762505
0.000940542
0.000404958
-0.000379669
-0.261457
-0.143297
-0.0136889
-0.129715
-0.0130875
0.00047979
0.00055105
0.00230956
-0.232812
-0.131981
0.00048069
-0.00852339
-0.0216871
0.000618955
-0.258023
-0.0672246
0.000926188
-0.00312637
-0.253896
0.000257583
0.000370778
-0.257889
-0.228062
-0.00103254
0.000957648
-0.258913
-0.240178
-0.26436
-0.000160728
-0.00183239
-0.26192
-0.0010572
-0.000256041
-0.00124871
-0.204578
-0.1901
-0.253699
0.00103282
-0.235556
-0.243993
-0.252209
-0.242642
0.00108093
-0.0795698
0.00306141
-0.261213
0.000727172
-0.00095194
-0.0316782
-0.0665011
-0.00380163
-0.0205099
0.000531709
0.00047094
-0.00173008
-0.255358
-0.00397369
-0.240916
-0.272025
-0.178722
-0.000430864
-0.23167
-0.139101
-0.259712
-0.253885
-0.00810668
-0.0802619
0.00244632
-0.069593
-0.219357
0.00115144
-0.258729
0.000704363
-0.00202607
0.00424734
0.000268773
-0.253451
-0.000418173
0.000799553
-0.250592
-0.2519
-0.00182122
-0.252766
-0.245202
-0.247148
-0.249573
-0.276206
-0.260041
0.000556717
-0.221909
-0.0734311
0.00066423
-0.00644498
0.00128902
0.0010244
6.26097e-05
-0.195596
-0.260973
-0.236006
0.00139045
-0.261213
0.00137965
0.00210474
0.000593299
-0.234131
-0.276673
-0.00776091
0.000446278
-0.258135
-0.259667
-0.271499
-0.241095
-0.147562
-0.20579
-0.00167112
0.00198889
0.0025127
-0.0013786
-0.253211
-0.000835703
-0.10895
-0.201671
-0.276515
-0.237948
0.00030657
0.000828822
-0.231183
-0.254023
-0.257613
-0.025501
-0.0693665
-0.263247
-0.25592
-0.239474
-0.262389
-0.234434
-0.263121
-2.1557e-05
-0.0040733
-0.0038513
-0.26136
9.72871e-05
-0.00104225
0.000125633
-0.190584
-0.0599282
-0.245645
-0.25844
-0.250944
-0.000659035
-0.209133
-0.227918
-0.273322
-0.00130864
-0.256584
-0.210552
-0.269467
-0.000226736
-0.212509
-0.244567
-0.274167
0.000689851
-0.0719143
-0.00525123
7.7261e-05
0.00146751
-0.266028
-0.0202755
-0.25275
-0.247624
-0.269672
0.00040896
-0.254598
0.000208072
-0.25513
-0.0112671
-0.182717
-0.000307224
0.000184006
-0.235428
-0.261889
0.0022035
-0.232385
-0.135757
-0.0181901
-0.00197177
0.00174012
-0.25374
-0.278105
-0.000484208
0.000506515
-0.000624745
-0.147007
0.000401766
-9.84302e-05
-0.0290085
-0.00921469
-0.247857
-0.00154222
-0.267964
9.7731e-05
-0.270728
-0.254951
-0.124837
-0.236434
-0.263783
0.000176955
8.17591e-06
0.00152904
0.000679642
-0.278788
0.00113558
0.00188329
-0.232729
-0.262257
-0.251772
-0.164834
-0.273732
-0.00218227
0.00133322
0.00135831
-0.260372
-0.260095
-0.000351689
-0.254787
0.000289445
-0.246176
-0.244261
-0.268776
0.000883618
-0.235152
-0.00173791
0.000248728
-0.269295
-0.262893
-0.00103769
4.75339e-05
-0.257506
-0.248887
0.00136807
-0.00158778
-0.240817
-0.259106
0.000610489
0.000559087
-0.26222
0.000978156
-0.220384
0.000498577
-0.260289
-0.242769
0.000396656
-0.233276
-0.255863
-0.0736757
-0.239523
-0.238557
-0.183315
-0.234244
-0.0345035
-0.00120405
-0.00348667
3.60418e-05
0.00019742
-0.254695
-0.00378491
-0.258849
-0.240123
-0.000122992
0.000927766
0.000126739
0.000688384
0.000997804
-0.00172037
-0.0023229
-0.00121865
0.00118054
-0.00289712
0.00235709
-0.00282596
0.00379014
-0.000759861
-0.0385499
-0.0778763
-0.249338
-0.262326
-0.256124
-0.256375
-0.00184702
-0.266832
-1.4839e-05
-0.270026
-0.00205694
-0.0210296
-0.226874
-0.251492
-0.00124195
0.000739448
0.00235195
-0.276957
-0.0740986
-0.254983
0.000522089
0.000267886
0.00230667
-0.190121
-0.255218
-0.0488802
-0.00253497
0.000875141
-0.00141234
-0.00192835
-0.129858
-0.0511209
-0.00251524
0.000561962
0.000549953
-0.00101313
-0.179279
-0.251217
-0.265586
-0.0723611
-0.265282
-0.179649
-0.261535
-0.0953555
-0.24634
-0.249399
-0.265986
-0.00134826
-0.256526
-0.207184
-0.256957
-0.267751
-0.24031
-0.00192112
-0.258072
-0.00155422
-0.266551
-0.240791
-0.260092
-0.00189274
-0.0151358
-0.231221
-0.255363
5.38044e-05
-0.263154
-0.251821
0.00138381
0.00217142
0.00100632
-0.000720931
-0.00348603
0.000402893
0.000638676
-0.250953
0.000572151
-0.2234
-0.234317
-0.259922
0.000142001
-0.246783
-0.24185
-0.275566
-0.00936784
-0.251967
0.000312961
-0.256461
-0.184133
-0.241785
-0.000702657
-0.0019146
-0.00226456
-0.264936
-0.255773
-0.039625
0.00125083
-0.261384
-0.176623
0.000120934
-0.00150596
-0.00957783
-0.254348
-0.00065936
-0.000346046
-0.256127
-0.252742
0.00156369
-0.253166
-0.19709
-0.254125
-0.0183965
-0.273583
-0.255593
-0.00155661
-0.048785
-0.260135
-0.250828
-0.00241168
-0.271338
-0.235164
-0.255992
-0.257028
-0.256558
-0.230624
-0.000245402
-0.259246
-0.000283682
-0.000734591
0.00188887
-0.0586836
0.000161061
-0.270229
-0.240145
-0.260882
-0.155584
-0.000315896
-0.240914
0.00038104
-0.023366
-0.273389
-0.243585
0.000232734
-0.000175829
-0.233931
-0.00128689
-0.250902
0.000809074
-0.256806
0.000860752
-0.258968
-0.00237861
-0.254256
-0.0200438
-0.0473689
-0.247831
-0.273458
-0.244801
-1.79108e-05
-0.271021
-0.136127
-0.255666
-0.227319
-0.0368433
-0.0964583
-0.0619617
0.000429396
-0.184432
-0.214145
-0.0179568
-0.227448
-0.250968
-0.00244276
-0.253326
-0.0017569
-0.227564
0.000660914
0.000279969
7.90232e-05
-0.0497731
-0.260221
-0.260763
-0.0162762
-0.102823
-0.000957731
2.50059e-05
-0.0023173
-0.000450776
0.000158735
0.000624264
0.00113482
-0.000771877
0.00172036
-0.238923
-0.237487
-0.0030784
-0.00424699
-0.234988
-0.26021
-0.0552289
0.00204144
-0.00184907
-0.262711
-0.0404122
0.000992251
0.000344449
-0.264671
-0.0313181
-0.0014146
-0.00112039
-0.0675162
-0.263496
-0.243058
-0.0542345
-0.270752
-0.263565
0.000954903
-0.229329
-0.258855
0.000505137
-0.249811
-0.00732541
0.00045335
-0.000535804
-0.265961
-0.0017714
-0.2419
-0.208869
5.77227e-05
-0.0328046
-0.270769
-0.000239374
-0.254365
0.000598479
-0.225539
-0.239236
0.000868853
-0.25531
-0.24427
0.000558041
-0.000363907
-0.252908
0.000550196
-0.243319
-0.267295
-0.260121
-0.0100452
-0.00522179
-0.00197896
-0.257563
-0.000305202
0.00253032
-0.00125584
-0.057439
0.000816391
0.000371825
-0.00594476
7.12578e-05
-0.235487
-0.258873
-0.0295769
-0.000140315
-0.239422
0.0021211
-0.000874558
-0.00666772
-0.235186
0.00104651
0.000195899
-0.255548
0.00248653
0.00150848
-0.000381034
-0.216586
0.000646683
-0.138474
-0.260336
0.00145622
-0.260367
-0.0272897
0.000592682
-0.258081
-0.247579
-0.266456
0.00113562
-0.100505
-0.00317189
-0.269428
-0.249095
-0.000562322
-0.0808744
0.000125614
-0.260225
0.000549008
2.80054e-08
-0.000692264
0.00183657
-0.00150305
-6.77473e-05
-0.24415
-0.00508674
0.000537491
-0.000610721
-0.000179823
-0.259116
-0.241057
-0.281189
-0.0112523
0.00052608
-0.254124
0.00282354
-0.000271805
-0.000101165
0.000284199
0.000898471
-0.0457885
4.85592e-05
-1.89091e-05
-0.11202
-0.2596
-0.263655
-0.2812
-0.229553
-0.00154436
-0.245652
-0.262275
-0.0706303
-0.242353
-0.275568
-0.243519
-0.159622
-0.00308252
-0.252567
-0.000707639
-0.24956
-0.000574461
-0.160377
0.00199879
-0.000939963
-0.249392
-0.223046
-0.238334
-0.000467219
-0.034526
-0.038459
-0.0449809
-1.04907e-05
0.000646749
-0.0199879
-0.258778
-0.0106923
-0.256256
-0.0246775
-0.00162905
-0.256107
-0.0013285
-0.00204083
-0.0361962
-0.000645659
-0.199387
-0.275945
0.000419758
0.00174819
-0.233902
-0.00957563
-0.234802
-0.254338
-0.138226