/*--------------------------------*- C++ -*----------------------------------*\
  =========                 |
  \\      /  F ield         | OpenFOAM: The Open Source CFD Toolbox
   \\    /   O peration     | Website:  https://openfoam.org
    \\  /    A nd           | Version:  10
     \\/     M anipulation  |
\*---------------------------------------------------------------------------*/
FoamFile
{
    format      ascii;
    class       surfaceScalarField;
    location    "850";
    object      phi;
}
// * * * * * * * * * * * * * * * * * * * * * * * * * * * * * * * * * * * * * //

dimensions      [0 3 -1 0 0 0 0];

internalField   nonuniform List<scalar> 
38623
(
0.217128
-0.21407
0.0788862
-0.0819442
-0.0596632
0.0769514
0.123181
-0.140469
-0.00692731
0.0134427
0.0332089
-0.0397244
0.00429763
-0.00235683
-0.0224788
0.020538
0.0153082
0.026762
-0.0334594
-0.00861079
-0.126555
-0.254707
0.238757
0.142505
0.0847568
-0.0709797
0.0821237
-0.0959009
-0.00864563
0.00852876
-0.0064015
0.00651838
0.0199131
0.0203251
-0.244265
-0.0360688
0.0794971
-0.32062
0.277192
0.110334
0.12477
-0.111592
-0.123512
-0.220358
0.194963
-0.00540216
0.0307967
0.461889
-0.0464124
-0.468664
0.0531877
-0.230032
0.209073
-0.0104733
0.0314323
0.0376908
0.0465617
-0.0521913
-0.0320612
0.0441397
-0.293578
-0.0478592
0.297297
-0.0149953
0.387016
-0.000220288
-0.3718
-0.00876047
0.265325
-0.00926788
-0.247297
0.00615919
-0.0272333
0.411924
-0.39085
0.403079
-0.283084
0.239807
-0.359801
0.183022
0.1384
-0.0436909
-0.277731
0.108842
0.0808163
-0.0793248
0.317275
-0.271727
-0.00165616
-0.043892
-0.221839
0.29196
-0.265955
0.195835
0.0430481
0.252015
-0.0439305
-0.251133
-0.037766
0.577371
-0.550353
0.0107479
0.0305443
-0.178307
-0.0555069
0.203269
0.223444
-0.178992
-0.492151
0.447699
-0.00920023
-0.000766582
0.00140204
0.00856476
-0.273941
0.293187
0.383833
-0.0149425
-0.0205955
0.0195399
0.0159982
0.00564721
-0.00154388
0.00077503
-0.00487836
0.0286606
-0.0320467
-0.0331822
0.0365683
0.293342
-0.0246066
-0.277495
-0.0103058
-0.0111531
-0.237435
0.258894
-0.341658
-0.173349
0.146034
0.368973
-0.000609866
0.000144497
-0.00719841
0.00766378
0.0053527
-0.236016
-0.147921
0.166975
0.0033953
-0.022449
-0.0567399
0.0719978
0.319286
-0.334544
0.0664029
0.413196
-0.429936
-0.0496638
0.271858
0.184709
-0.25434
-0.202227
0.331551
-0.185469
0.332974
-0.479057
-0.416578
0.203886
0.337362
-0.12467
0.60007
0.241905
-0.515078
-0.326897
-0.0301813
0.0738746
-0.430172
0.386478
-0.0136375
0.0266862
-0.00130156
-0.0117472
-0.261177
0.193571
0.15539
-0.087784
-0.000911599
0.00187654
0.00100434
-0.00196928
0.00753536
-0.000500324
-0.00768495
0.000649917
-0.00497798
-0.00136009
0.00147139
0.00486667
-0.0108969
0.0288509
-0.0231491
0.00519505
-0.00187936
0.000705472
-0.00171793
0.00289184
-0.382306
-0.109379
0.295281
0.196403
-0.00101481
0.000440679
0.00622135
-0.020905
-0.396754
0.402663
0.0398021
-0.0230519
-0.0548283
0.0380781
-0.00436856
-0.00810511
0.00854254
0.00393114
-0.141266
0.185395
0.138893
0.00213024
-0.00729816
0.00572592
-0.00055801
-0.00918016
0.00361442
-0.00319752
0.00876325
-0.342084
-0.109681
0.0351873
-0.337674
0.326454
0.084095
-0.0728748
-0.00573036
-0.00746426
0.00878714
0.00440748
-0.247597
-0.32312
0.348877
-0.502002
0.353047
-0.230243
0.379197
-0.168416
0.144125
-0.0250219
0.0493133
-0.537092
0.423233
0.175394
-0.0615352
0.121916
0.539925
-0.0617716
-0.390467
-0.0651122
0.0645317
0.391048
0.00888506
-0.00309577
-0.00897
0.00318071
0.0144811
-0.00767827
-0.0137302
-0.0502181
-0.019028
-0.516338
0.585584
0.0606853
-0.0612583
0.0382637
0.401917
-0.380616
-0.268897
0.0411203
-0.06104
0.0588461
-0.0389263
0.0219577
-0.181812
0.175878
-0.0160242
0.113997
0.190007
-0.194661
-0.109343
-0.0117752
0.00534897
-0.00521934
0.0116455
0.0375046
-0.0295564
0.342359
-0.350308
-0.109929
0.225113
-0.207451
0.092267
0.0447038
-0.0560421
-0.0882866
0.0996249
0.0710144
-0.0908755
-0.0106091
0.0084766
-0.000422834
0.00255533
-0.0179274
0.042517
-0.0250394
0.000449843
-0.236273
0.247072
-0.0219521
-0.0580724
0.0920336
-0.0990524
0.0650911
-0.00142033
0.000359513
0.000307596
0.000753237
-0.290009
-0.102655
0.136698
0.255966
0.362476
-0.365237
0.0402664
-0.00688806
-0.000319533
0.006577
0.000630582
-0.423951
0.072077
0.402789
-0.0509158
0.00394834
-0.0074406
-0.0022381
-0.3337
-0.187757
0.201797
0.31966
-0.00686059
-0.00326534
0.00527759
0.00484834
-0.00741688
0.000108394
-5.3635e-05
0.00736212
0.495211
-0.113021
-0.392724
0.0105337
0.0755628
-0.103716
-0.233024
-0.280213
-0.0295491
0.0675136
0.242249
0.00738848
-0.00106877
0.00898851
0.34833
0.0640004
-0.0959112
-0.316419
-0.038495
-0.103073
-0.0268485
-0.0581013
0.0223335
-0.124625
0.160393
-0.00672886
8.03805e-06
0.00672273
-1.91701e-06
0.00128572
0.00749522
-0.00829246
-0.000488474
4.02823e-05
0.00198962
-0.012639
0.271933
-0.107763
-0.290724
0.226167
0.417655
-0.14471
0.149654
-0.0434385
0.354739
-0.316589
-0.127322
0.0891718
-0.113741
0.154488
0.0905638
-0.13131
-0.274717
0.0797542
0.200315
0.0568423
-0.040387
-0.0343827
-0.00526155
0.287841
-0.000740145
-0.281839
-0.139771
-0.331607
0.12972
-0.307177
-0.053775
0.0585515
0.3024
-0.183736
0.370678
-0.554082
0.367139
0.0540998
-0.283263
-0.0560972
0.28526
-0.000151383
0.000314063
-0.00936291
0.00532541
-0.00772835
-0.00422312
0.00662606
-0.120136
0.0234076
0.210725
-0.000178568
0.00578917
0.000228433
-0.00583904
-0.0421067
-0.382659
0.0403228
0.384443
-0.0054485
0.0038643
0.00688204
-0.00529785
-0.0926207
0.0851854
-0.0956372
-0.079458
-0.673058
0.552732
0.199784
-0.00893329
0.00243155
-0.00267842
0.00794531
-0.000134698
-0.000275249
-0.00116373
-0.0100723
-0.004653
0.015889
0.0170348
-0.0106983
-0.0157001
0.00936358
0.00810692
0.00902384
-0.00679237
-0.0103384
0.0288956
0.163494
-0.148716
-0.0436731
0.132675
-0.000630605
-0.0186656
-0.113379
-0.212215
0.201847
0.0568269
-0.0464584
0.421149
0.0876203
-0.197107
-0.311663
-0.0983772
0.215667
-0.175391
8.75658e-05
0.00636894
-0.00643921
-1.73009e-05
0.0422498
0.174671
0.0514544
-0.12036
-0.16942
0.238325
-0.109315
0.151401
0.00863724
-0.00867178
-0.000116842
0.166746
-0.183058
-0.256547
0.272858
-0.142038
-0.240514
0.219492
0.16306
0.0817692
0.301986
-0.113263
-0.270492
0.363394
0.013612
-0.0383737
-0.338632
0.474615
-0.194172
0.0742962
0.288273
-0.0542628
-0.283332
0.0493227
-0.0676513
0.0390762
-0.0192512
0.0478263
-0.00352394
0.00269252
0.00673777
-0.00590635
0.0239036
-0.371873
0.38895
-0.0409808
0.0467205
-0.00316609
-0.0392163
-0.00433807
0.270202
-0.119931
-0.462709
0.312438
0.069675
-0.0887893
-0.0568564
0.0759706
-0.0504925
0.43322
0.146981
-0.529709
0.0347667
-0.0327892
0.0216257
-0.0236032
-0.0643073
0.0490773
0.292943
-0.277713
0.0154195
0.0805683
-0.0736542
-0.274928
0.157202
0.234958
-0.117232
-0.00992893
0.0107957
-0.00623629
0.0053695
0.00230087
0.0102995
-0.00845883
-0.00414153
0.0555038
0.380518
-0.382323
-0.0536984
0.0807339
0.029277
-0.0447231
-0.0652878
0.00250754
-0.0093964
-0.00133264
0.0082215
-0.163063
0.165013
0.462291
-2.28929e-05
-0.411525
-0.0507432
0.000236585
0.366971
-0.343304
-0.189429
0.188659
-0.0672917
0.0680619
-0.006231
-0.00168867
0.00705147
0.000868199
-0.22993
0.404184
0.206401
-0.380655
0.280767
0.128699
-0.24272
-0.177674
0.0313325
0.184353
-0.038011
0.019354
0.00486546
-0.0199219
-0.234697
-0.314148
0.225725
0.0020838
-0.00711016
-0.000422151
0.285987
-0.547522
0.337426
-0.0758903
-0.0134414
0.000216978
0.0104177
0.00280676
0.335038
0.052411
-0.335495
-0.0519538
0.0521503
0.244873
-0.054734
-0.242289
-0.265038
-0.0291135
0.276215
0.0179375
-0.20231
0.170705
-0.12829
0.159895
0.00907384
0.00611705
-0.0121659
-0.00302496
0.0212182
-0.00463743
-0.00750689
0.0756272
0.0354833
-0.0699902
-0.0970516
-0.13206
0.0772918
0.15182
-0.0423965
0.09109
-0.399593
0.350899
0.421042
-0.408817
-0.0331298
-0.194956
0.0822533
-0.0046182
0.00506551
0.00802929
-0.00741792
-0.000785785
0.00563087
0.00257284
0.286932
-0.198132
-0.00269493
0.00453679
0.00690463
-0.0087465
-0.392629
0.072219
0.041481
0.278929
-0.301923
0.361703
-0.11652
-0.295575
0.142798
-0.181226
0.334004
-0.0521682
-0.324363
0.059872
0.316659
0.153094
-0.203922
-0.294982
0.34581
0.000371045
3.05179e-06
-0.00749096
0.00711686
-0.000536522
0.00712357
-0.00928198
0.00210376
-0.00624931
-0.000529393
0.00467494
0.162298
-0.132077
-0.143961
0.320417
-0.0246096
-0.295571
-0.262018
-0.326354
0.27937
0.309002
-0.00446021
0.00676145
-0.00582518
0.0134324
-0.124283
-0.0332919
0.144143
0.00952527
-0.00709977
-0.0110711
0.0027588
-0.00957124
0.00931998
-0.0300964
0.0162273
0.0229443
-0.00907515
-0.0648625
-0.197169
0.0804952
0.181536
0.19411
-0.00366828
-0.0600167
-0.130425
-0.0947846
0.233867
0.0658325
-0.204915
0.308204
-0.037965
-0.299796
-0.00804016
-0.000742776
0.00817307
0.356082
-0.345238
-0.0532401
-0.444289
0.247572
-0.0332124
-0.00317798
-0.00120071
0.00249932
-0.00450738
0.00113423
0.00928137
-0.00590822
0.112496
-0.0096708
-0.0893929
0.039339
-0.299654
-0.000186771
0.00725844
-0.0012315
-0.00584018
-0.0119497
-0.00958925
0.007569
0.0139699
0.0810631
-0.0529889
-0.514018
0.485944
-0.0395969
0.0392423
-0.00698178
0.000333467
6.59961e-05
0.00658232
0.315088
-0.0757185
-0.303677
-0.0991841
0.309225
0.018283
0.0299719
-0.0138284
-0.0344265
-0.000157052
0.00703484
-0.00737811
-0.310784
0.071249
-0.244242
0.0636553
-0.00449044
0.185077
0.40293
0.0485279
-0.401821
-0.049637
-0.200518
0.23938
-0.281787
0.242924
-0.00242279
9.08584e-05
-0.00141331
-0.0624053
-0.210898
-0.579642
0.601961
-0.0600847
0.0504018
-0.040051
0.0164112
0.0108622
0.000369673
-0.00677174
-0.00446018
-0.248338
-0.366976
0.0281966
-0.00851909
0.00255495
-0.0222324
0.0615483
-0.470427
0.5251
-0.116222
-0.0116889
-0.00670457
0.0113049
0.00708855
-0.00141866
0.00236372
0.000931491
-0.308266
0.044361
-0.0523319
0.316237
0.00126946
-0.012237
0.0110078
0.0123555
-0.000182011
0.0382283
-0.00111144
-0.00613436
-0.121897
-0.320993
0.105215
-0.0871634
0.254656
0.10444
0.0376874
-0.4925
-0.0602652
-0.0112347
0.00252889
-0.000690547
0.0785581
0.022956
-0.0207802
0.121479
0.460398
-0.429959
-0.151917
0.076486
-0.22556
0.310498
-0.161424
-0.00500697
-0.00126988
0.00173221
0.00454464
-0.487812
0.48779
-0.0467119
0.0467345
0.100658
-0.0134318
-0.0579496
0.00469762
-0.00766487
0.00185582
0.0066932
-0.005828
0.00440811
-0.000679765
-0.00677563
0.00304728
-0.0904779
-0.338549
0.0914166
0.33761
-0.304116
-0.213954
0.000662166
0.000701718
-0.0534413
0.0828786
-0.308947
0.27951
0.00060713
-0.00859069
-0.000949729
-0.113817
0.171253
0.032726
0.26223
-0.245878
0.0564344
-0.362824
0.378388
-0.00999117
-0.00907031
0.00562005
0.00874728
0.00550166
-0.00926296
-0.00498599
-0.0338691
0.00669962
0.00896725
0.0182022
0.00890273
0.016937
0.17909
-0.254129
-0.119622
0.00536418
0.0188592
-0.00486935
0.000408942
0.000674621
0.00273044
-0.003814
0.0939748
-0.2214
0.292873
-0.165448
0.109802
-0.151298
-0.247228
0.0392797
0.000459723
0.00727171
-0.00739268
-0.000338759
0.0576583
-0.0841354
-0.284307
0.00663863
0.000842793
-0.000715001
-0.00676643
0.274567
-0.317385
0.0867748
-0.0439568
0.00768195
-0.0150402
0.00934786
0.0837509
-0.0499656
-0.278027
7.86817e-05
-0.00044437
-0.00461229
-0.0713725
-0.33167
0.0851012
0.317941
0.236955
0.0386787
-0.236275
-0.0393592
0.00720623
0.00536859
-0.00296558
-0.00960924
0.00595163
-0.00364337
-0.00558106
0.00327278
0.0907229
-0.363934
0.551724
-0.278513
0.00825785
-0.00876018
0.00326113
-0.0486448
0.0473834
0.0360281
0.00319866
-0.0142164
-0.00264812
-0.00198337
0.00321283
0.00434423
-0.00836456
-0.00344393
0.00327598
-0.00459969
0.00573182
-0.0108153
0.00377293
-0.0119607
-0.225469
0.00570055
-0.00517896
0.00460448
-0.00512606
-0.358188
0.308082
0.0124405
-0.00858369
-0.24013
0.00900287
0.000461617
-0.00899123
-0.000473255
0.00468385
-0.00765923
-0.00914858
0.012124
-0.0301937
-0.0320291
0.0175177
0.0447051
0.00947754
0.00169877
-0.0272173
0.0200775
-0.0141499
0.0212897
-0.122771
-0.394204
-0.0207771
-0.0149593
0.00717552
-0.00155011
0.00316173
-0.00412913
0.376693
0.0525351
-0.0808979
-3.62573e-06
-0.00689059
0.001728
-0.00347618
0.0550204
0.0476827
-0.0330281
-0.396753
0.0635156
-0.0607889
0.394026
0.136713
-0.201652
-0.112735
-0.0110188
-0.00138998
0.00784924
0.00455948
0.00835054
-0.000479884
0.00607651
0.00547395
0.100943
-0.0426189
-0.0800179
0.0216936
-0.00334589
0.00635483
-0.0374218
0.00704188
0.510042
-0.479662
0.00233659
-0.00863014
0.00662702
-0.00179388
0.000805182
-0.00187057
-0.00504251
0.00108577
0.00582729
-0.367421
-0.285731
0.208862
0.0636812
-0.033768
-0.228959
0.0207739
0.213995
-0.0058096
0.0126598
0.0125529
-0.0141713
-0.0110414
0.00127241
-0.0060589
0.0218213
0.00431709
0.0069997
-0.0048837
-0.00643311
0.209017
-0.096634
-0.207168
-0.0802845
-0.0213188
0.0582174
0.0433858
0.00705904
-0.215783
-0.174079
0.382803
-0.00771454
0.00128621
-0.285067
-0.0159556
0.247581
0.00737508
0.00424602
-0.00730402
0.00345881
-0.0233827
-0.0103152
-0.00223033
0.000428549
0.012117
-0.163311
-0.258808
0.065929
0.35619
-0.273589
0.316185
0.153938
-0.196535
-0.00913687
0.00885029
-0.00970459
0.00539323
0.014737
-0.0152648
0.00652249
-0.103011
0.0805427
0.587957
-0.60816
-0.059255
0.489498
-0.656212
0.225816
-0.0591023
-0.00154686
-0.00724385
0.00142519
0.00736551
-0.1049
-0.175596
0.205553
0.0749431
-0.000464703
-0.00825226
-0.0322456
0.0203348
0.0113866
-0.00537579
-0.016326
-0.00469347
0.00540373
0.0112257
-0.011936
0.00714076
-0.000204828
-0.00747245
-0.000216398
-0.00602676
0.000385598
-0.000850941
0.00282907
0.0498688
0.247434
0.0644005
-0.186622
0.304261
0.227084
-0.344722
0.368474
-0.604941
0.355522
-0.119055
-0.0628291
0.0520201
-0.0134676
0.0103684
0.0114478
0.141942
-0.38953
0.234279
0.0133094
-0.0485299
0.0285366
0.334954
-0.0145847
-0.31331
0.00289296
-0.00135583
-0.00895505
-0.210389
0.0659482
-0.0599962
0.204437
-0.00351766
0.00339608
0.00712128
-0.270344
0.213884
-0.277239
9.63462e-06
0.0431883
0.472934
0.0612488
0.15662
-0.228458
0.00650683
-0.00519268
-0.0020965
0.00339456
0.00389462
-0.0480048
-0.143911
0.162716
0.0291997
-0.392568
0.00137534
-0.00576424
-0.00176043
-0.00365773
-0.00560062
0.00503403
-0.0214971
0.298277
-0.204132
-0.0154365
0.00440567
0.00353981
0.00749103
0.0635154
-0.0603956
0.0605615
-0.0228904
-0.300919
0.014862
0.212596
-0.40443
0.269519
-0.0776853
0.479548
0.0697866
-0.0598361
0.067888
-0.0595725
0.138709
-0.205552
0.252293
0.192639
0.00628787
0.0079114
0.260174
0.0521745
-0.0523458
-0.260003
-0.00366647
-0.0112992
0.0147684
0.17352
-0.136834
-0.0387758
0.239802
0.00208009
0.00638116
0.00669834
0.00116793
-0.0028894
0.00958596
-0.00645462
0.000256368
-0.00338771
0.0142
0.222079
-0.203552
-0.558107
-0.446797
0.122732
0.013502
-0.321459
-0.00663972
0.00301942
0.0238084
0.0214299
-0.0318199
-0.0134183
0.007407
0.0036656
-0.00281475
0.00842149
-0.0069725
0.00394422
0.00621483
0.026284
-0.0389607
0.00646194
-0.0443582
0.0710634
0.048922
-0.166827
-0.0795134
0.134699
0.111641
0.00468727
-0.00754337
-0.00014889
-0.00969368
-0.00297092
0.00389435
-0.00865178
-0.0467803
0.705421
-0.0602719
0.110012
-0.0155084
-0.0590209
-0.00438353
0.00568923
0.00606939
0.072115
0.0784642
-0.0575134
-0.0930657
-0.0143163
-0.00777782
0.0111972
0.00428082
-0.0322178
-0.00593216
0.139372
0.0572744
-0.119355
-0.219455
-0.0373572
0.0678498
0.188962
-0.0575247
0.255242
0.0485722
-0.24629
-0.00335497
0.00559338
0.00695678
-0.00919518
0.310104
-0.202288
0.197124
-0.304941
-0.218129
-0.0714887
0.130024
0.159594
0.0118664
-0.00901806
0.00906355
-0.00934295
0.00088653
-0.236955
0.172641
-0.00539562
0.0112299
0.00310217
-0.00893643
-0.0183036
-0.0054627
0.00882375
0.00173384
0.00630157
-0.000566286
0.00918215
-0.177586
-0.201531
0.380946
-0.333436
-0.0279453
-0.0195651
-0.00516372
-0.00233715
0.00575941
0.00174146
-0.134313
0.176391
-0.205389
-0.333343
0.353917
-0.179636
0.159062
-0.527042
-0.0617157
0.50107
0.0876881
-0.113194
0.166996
-0.101807
-0.0341358
0.0258092
0.429368
0.00226254
0.00861704
-0.00440624
0.0024562
-0.00169334
0.0513485
-0.0368607
-0.00226959
0.000984001
-0.00206939
-0.00333644
-0.00529732
0.00851046
-0.0130811
0.0153257
-0.00982095
0.00532027
-0.462354
-0.196998
0.291931
0.0118937
-0.038193
-0.00451527
0.0308146
-0.318603
-0.0428895
0.00466462
0.0072482
-0.00445209
0.0270877
0.484461
-0.562041
-0.00110159
-0.00252413
-0.00176989
0.188502
-0.0735105
-0.219891
-0.154223
0.322552
-0.00523108
0.00836789
0.00225055
0.00609455
0.00786798
-0.103256
0.00406627
-0.00934573
-0.265941
-0.378383
0.0750849
0.145214
-0.0767407
-0.143558
0.0197585
0.0092218
6.30204e-06
-0.000126416
-0.00693576
0.00705587
-0.00991699
0.0159819
-0.00683093
0.000765992
-0.319461
-0.00905291
0.0593693
0.269145
-0.0554792
0.195647
-0.24951
0.267852
-0.306872
0.0016206
-0.619421
0.0698706
-0.0586104
-0.0106369
-0.035437
-0.209162
-0.175937
0.0579663
0.327132
-0.0670798
0.196872
-0.194655
0.0202668
-0.0214496
0.0226127
0.00852418
-0.0065068
0.00473124
0.00631236
0.0105139
0.0377693
-0.0328637
0.53352
-0.563051
-0.273451
0.302983
-0.0063029
0.139629
-0.428394
0.512209
-0.0139505
-0.331094
0.344121
0.000922949
-0.0242664
0.025665
-0.020511
0.0191124
0.0503451
0.000645374
-0.0390968
-0.016047
0.00587958
-0.0106096
-0.139267
0.0317305
0.152079
-0.0445426
0.214757
-0.0590087
0.0440489
-0.199797
-0.0735776
0.0494289
0.0632248
-0.198764
-0.117771
0.0100327
-0.262328
0.0554072
0.196888
0.0418033
0.0199481
-0.0265085
-0.0352428
0.000669165
-0.00162514
0.00764918
-0.0465053
0.365216
0.0184852
0.00333931
-0.0116749
-0.0101496
-0.00653993
0.00504985
-0.00461941
-0.0426772
0.00910353
0.00967136
0.0054034
-0.00554948
0.0213866
-0.0259039
-0.0153553
0.0198725
-0.113501
-0.53838
0.124839
0.0116427
-0.0104398
0.00456565
-0.00576863
0.411981
-0.161146
0.127357
0.222291
0.0823728
0.0602569
-0.0771535
-0.0654763
-0.000307373
-0.00855115
-0.000462603
0.00932113
5.89369e-05
-0.00106207
0.0077409
0.020402
-0.0232818
0.00908108
-0.00911007
0.00795892
-0.00792994
-0.0132081
-0.00204068
0.00301186
0.0788806
0.163811
-0.090872
-0.4406
-0.0436784
0.0312151
0.453063
-0.486434
0.0370969
0.00748955
-0.0209737
-0.0173429
0.0233572
-0.00299878
0.00406472
-0.000208817
-0.000113532
-0.0074591
0.00778144
-0.0167539
0.319151
-0.747397
0.18605
-0.0580735
0.0355242
0.0191017
0.0323092
0.00660323
-0.0102517
0.0245487
-0.0211906
0.0169768
-0.153565
-0.30945
0.0448476
0.418167
0.000116102
-0.00506991
0.000446429
0.291358
0.207924
-0.359653
-0.0995501
0.0746096
0.0048272
0.0036548
-0.632947
-0.0566914
-0.0577588
0.117745
-0.0241283
-0.0928219
-0.000794566
0.037159
0.0864554
-0.00495672
-0.00672905
-0.021771
0.325121
-0.0907537
0.00664886
0.00245382
0.000483284
0.0038342
-0.0101443
0.0185577
0.00975726
-0.0170851
0.00799353
-0.0562566
0.0165335
0.0317296
0.262868
0.0212956
-0.243743
-0.0404201
-0.392462
0.379611
0.0258792
-0.0130285
-0.0413759
-0.43336
-0.0776432
-0.368111
0.179814
-0.00659318
0.0132169
-0.0163736
0.0097499
-0.0134031
-0.00502444
-0.00683056
-0.365303
0.264256
0.0567099
-0.0463994
-0.0414636
-0.0456912
-0.355693
-0.0603057
0.344627
0.296867
-0.0491188
0.0450094
-0.131962
-0.0523146
0.580252
-0.0785995
-0.170101
-0.336957
0.24899
-0.331563
0.28322
0.289222
-0.24088
-0.033395
0.131949
0.334666
-0.0036166
-0.00410554
0.00110031
0.00662183
-0.362955
-0.171046
0.502959
0.0310415
-0.00571249
-0.000846632
0.0114406
-0.00488145
0.0724672
-0.124516
-0.0490666
0.101115
-0.273344
0.180197
0.397407
0.0077306
-0.00227019
-0.265062
-0.0260481
-0.363077
0.102127
0.286998
0.0084299
0.00129724
-0.0193055
-0.00384372
0.0141311
0.0119971
-0.0126794
-0.00923462
-0.384788
-0.157501
0.0799348
0.234984
-0.0723634
0.00105841
-0.000215988
0.00585592
0.00580566
-0.00223747
-0.541639
0.0042137
0.00724385
-0.00856459
0.041277
-0.482686
-0.0464029
-0.596799
0.540495
-0.0571969
0.177217
0.0255236
-0.0399029
-0.394438
0.150281
0.0223048
-0.341604
-0.0467295
0.366029
0.00872459
0.00790644
-0.00490755
0.00630111
-0.00491123
-0.0169367
0.00396979
0.0183706
-0.00723961
-0.000369465
-0.0126107
0.013406
-0.00222955
-0.546578
0.604601
-0.0557931
0.0131014
-0.363727
0.0669869
-0.0589533
0.0299056
0.0341479
0.0042932
-0.155389
0.285814
0.0966595
0.0397401
0.476927
-0.477278
-0.0393892
0.548325
-0.523467
-0.000706629
-0.00524145
-0.231052
0.226192
-0.230812
0.255701
0.0130618
-0.0379506
-0.00419082
0.0275482
0.0233631
-0.0283069
0.2595
-0.00465585
-0.226537
0.0650109
0.153242
-0.00829771
-0.00020963
0.00845371
0.0437182
-0.259742
-0.564229
-0.0332679
-0.0587147
-0.0971807
0.0232361
0.282366
-0.0152744
-0.00176674
-0.0569358
0.169502
-0.172602
0.0600357
-0.0244728
0.0217992
-0.293158
0.203773
0.00996131
-0.00726129
0.00141046
-0.00411044
-0.0489424
0.0571767
0.00867986
0.217155
0.0359523
-0.210059
-0.0043756
-0.00892087
0.00627143
0.0455398
0.076376
0.0706282
0.298638
-0.0763238
0.0277461
0.00721886
-0.0145629
0.0102705
-0.0626271
0.124472
0.031618
-0.0251526
0.0452526
-0.0517181
0.0115158
-0.00642157
-0.00457465
0.00480668
0.00406117
0.109677
-0.0287262
0.0914339
-0.172384
-0.0156559
0.035757
0.00728852
-0.0273896
0.0885528
-0.373025
0.396935
-0.306995
0.244476
-0.42388
-0.00460455
0.0147396
-0.0105068
0.00674204
0.00606559
0.0207976
-0.221738
-0.066506
0.187963
0.10028
0.0848753
-0.090798
-0.0275367
0.170221
-0.0751495
0.0702844
-0.165356
0.386219
-0.397734
0.0609193
-0.0494044
0.251511
-0.136314
0.184458
-0.299654
0.416247
-0.422569
0.0563612
-0.0500383
0.453412
-0.37531
-0.0557974
0.452724
-0.0210165
-0.338844
-0.0467329
0.507056
-0.0353275
0.000504999
0.0302031
-0.167334
-0.376473
0.342253
0.201555
-0.0250465
-0.0415106
-0.101071
0.153234
-0.0260348
-0.320831
-0.517104
0.0259634
-0.0554375
0.177554
-0.0309043
-0.13245
-0.0230451
0.0145882
-0.00224143
0.072261
0.246132
-0.0582185
-0.37051
0.0273323
-0.0421234
0.475329
-0.460538
0.209187
-0.090436
0.0139981
-0.0312622
-0.185631
0.202895
-0.0413162
0.278464
-0.265455
-0.0467715
0.488149
-0.0387688
0.226624
0.0292991
0.0195742
-0.0157168
-0.327926
0.316155
-0.128
-0.244392
0.0780887
0.242789
-0.0157315
0.0280153
-0.0279397
-0.000947706
-0.013732
-0.0090676
0.0278263
0.0165062
-0.0257748
0.00260995
-0.00343346
-0.00217528
0.257954
-0.0447071
0.00551723
-0.00745087
0.0309095
-0.0411686
0.18367
-0.173411
-0.373156
0.191492
0.253925
0.380003
-0.0173338
0.000299394
-0.362968
0.321685
0.0350494
-0.0485299
-0.0482413
0.356016
-0.0444489
0.0390264
-0.350594
-0.110462
0.77133
-0.0562679
0.406862
0.0595385
-0.0501543
-0.00159084
0.0136915
0.0261277
-0.0150039
-0.0320362
0.0255905
0.0139843
-0.00241522
-0.212972
0.201402
0.337605
0.170933
-0.0551263
0.215123
-0.181004
0.0219536
-0.0560725
0.246565
-0.198085
0.162354
-0.197533
0.0855414
-0.0503625
0.167643
0.117294
-0.069814
0.0698331
-0.00245202
0.0139881
-0.0813691
0.174555
-0.0762276
0.071894
0.03826
-0.0163705
0.0138676
0.240338
0.107757
-0.10153
0.36045
-0.0164234
0.00708314
-0.35111
0.154019
-0.141697
0.122202
-0.134523
0.224126
-0.237496
-0.0663287
0.0796986
0.303509
-0.519902
-0.0930566
0.172373
-0.0691344
0.0959216
-0.19916
0.360046
0.022768
-0.0223632
0.173051
-0.170839
0.0337406
0.0201743
0.415735
-0.411234
-0.0246759
0.280134
-0.316431
0.0149786
0.0213192
-0.0420123
0.192288
-0.136278
-0.0404611
0.235823
0.226844
-0.206669
0.144176
-0.164351
0.270854
-0.185845
0.201923
0.0525906
-0.0596306
0.169394
0.00715486
0.145632
-0.136897
-0.0158903
-0.0233934
0.123318
-0.109421
0.00949603
0.0929235
-0.0489519
-0.0699562
0.0259847
0.0584045
0.0156435
-0.00421482
0.164675
-0.0721812
0.035256
-0.0286685
0.0316726
0.0774335
0.217094
-0.119973
0.170076
-0.148134
0.203419
-0.0551499
0.0758569
0.238819
0.101
-0.0994806
0.0903635
-0.0523034
0.0137905
-0.0237882
0.319322
-0.309324
0.332966
-0.0240727
0.0177495
-0.326643
0.23801
0.0294688
0.0126547
0.245119
-0.123947
0.130338
0.29758
-0.207051
-0.0633125
0.0647868
-0.409234
0.40776
0.387431
-0.376531
-0.00840844
-0.0024912
0.0272199
0.0230963
0.289503
-0.496335
0.234013
0.248599
-0.211758
0.387644
0.0166111
-0.0172388
0.235214
0.145773
-0.135868
-0.325745
-0.123864
0.158885
-0.0927367
0.0838713
0.172677
-0.189192
-0.27682
0.202093
0.263919
0.163117
-0.15003
-0.00593249
0.129783
-0.121446
0.210773
-0.197469
0.0641293
-0.00447013
0.315467
-0.346643
0.0356461
0.416936
-0.0327976
0.00329284
-0.120357
-0.318862
0.10067
0.22735
-0.44293
0.30667
-0.0436888
0.347727
0.0433243
-0.347363
0.0308076
-0.0289299
-0.0176092
0.125188
0.325878
-0.145531
0.0554382
0.155104
-0.0624738
0.314459
-0.313093
0.0611079
-0.00593686
0.302094
-0.322447
-0.168421
0.0611909
-0.428681
-0.0609849
0.428475
0.0539889
-0.0764831
-0.0819567
0.104451
-0.081401
0.193315
0.269032
-0.00798915
0.00755124
-0.00367245
0.301969
-0.405623
-0.25319
0.484818
-0.253413
-0.407427
0.176022
0.274533
0.418557
-0.334401
-0.0559309
-0.0282253
-0.000564115
0.00144768
-0.00944656
-0.00134408
0.259174
-0.360424
0.0295927
-0.0179479
0.192048
-0.118115
0.344624
0.362455
0.190631
-0.357989
-0.195096
-0.264191
0.267845
-0.376678
-0.00806951
-0.0587722
0.462436
-0.114079
0.0474941
-0.0604461
0.0167184
0.0312869
-0.00537088
-0.180903
0.173894
-0.134688
0.0958135
-0.123823
-0.0738697
0.0757122
0.0521465
-0.116663
0.0571019
0.117226
-0.0576641
-0.0487369
0.0750719
0.00892092
-0.304773
0.155688
-0.067241
-0.0337692
0.202513
0.00881027
0.023866
0.159123
0.148489
0.0997369
-0.0311319
-0.090638
0.0822571
-0.329053
0.337434
-0.194095
0.0540549
-0.0457747
0.0781578
-0.157491
0.171194
0.224307
-0.269557
0.160691
0.171467
-0.0626009
-0.0518436
0.0363785
-0.0850233
0.0612836
-0.0175522
0.0189405
-0.00712538
0.102742
-0.099049
0.235126
-0.374311
0.378609
0.0990964
-0.103395
0.0380215
0.0489404
0.0385096
0.262956
-0.256079
-0.0453867
-0.0717097
0.325496
-0.335188
0.250065
-0.0764311
-0.14045
0.0367186
-0.00513241
0.000924802
0.00293773
-0.426264
0.0135872
-0.196402
0.098856
0.200288
-0.317949
0.299704
0.163745
-0.1455
0.0213395
-0.462587
0.473999
-0.0327519
-0.135896
0.3282
0.211385
-0.337285
-0.111824
0.141971
-0.175009
0.221031
0.28563
-0.141791
-0.329684
0.332858
-0.0236806
-0.259481
0.284415
-0.0609315
0.04099
-0.318327
-0.259767
0.34492
0.233174
0.0056049
0.00729529
-0.0210916
0.0081914
-0.0730141
0.023413
-0.229766
0.279367
0.44852
0.270701
-0.436537
-0.282684
-0.215201
0.20203
0.206486
0.249867
-0.153129
0.0877195
-0.284846
0.200533
-0.0353346
-0.0169028
0.00350062
-0.300013
-0.0936761
0.171951
-0.213343
0.0294608
0.222483
-0.0386004
-0.23387
0.185745
0.239617
-0.471075
-0.0302334
0.149197
-0.0386899
0.0033495
-0.00860491
0.422191
-0.434839
0.0153942
0.273438
0.146007
-0.0472219
0.0243256
-0.101729
0.227511
-0.181064
-0.0550811
0.0520909
-0.0820332
0.0113534
0.369936
-0.0588486
-0.322441
0.241665
0.178115
-0.259089
-0.136797
-0.0903063
0.219042
0.00806111
-0.00737269
-0.00633053
0.0328447
0.41026
-0.0494368
0.334358
-0.0514884
0.503805
-0.498637
-0.0519394
-0.449546
0.456437
-0.0505693
0.346293
0.0625723
-0.0527837
-0.435865
-0.0500169
-0.433197
0.427118
0.0560423
-0.0499628
0.490381
-0.538826
0.103359
-0.0549145
0.378362
0.0571434
-0.0492861
-0.516105
0.538771
0.0306442
-0.0533105
0.499105
0.0140592
-0.0508732
0.514835
0.0534784
-0.515724
-0.0525892
-0.573082
0.684044
-0.0570777
-0.0538849
-0.482274
0.0501223
0.487727
-0.055576
0.44282
0.0595681
-0.452952
-0.0494354
-0.0496497
0.0610187
0.396161
-0.0503177
-0.432987
0.440504
0.0426971
-0.0502139
0.0901304
0.302244
-0.054769
-0.0659642
0.181017
-0.267795
0.260156
-0.16737
0.0125827
-0.00854142
0.00381848
0.0688015
-0.0565208
0.151422
-0.225031
0.215551
0.313016
-0.207449
0.312599
-0.0394294
0.32433
-0.270916
-0.0114032
0.00136728
0.133354
-0.202361
-0.0365692
0.0265594
0.155642
-0.0267234
0.331985
-0.338224
0.359028
0.029165
-0.0499689
0.442272
0.0173237
-0.0493354
0.360189
0.0244913
-0.0503225
-0.435669
0.367432
-0.0536602
0.179837
-0.0455518
-0.222729
0.337147
-0.393429
0.402887
-0.161479
-0.00943728
-0.0130822
-0.363783
0.386303
0.0501938
-0.0553805
0.167903
0.0548567
0.0256299
-0.21242
-0.257057
0.092225
-0.109956
0.274788
0.257293
-0.420961
0.0159787
-0.0378326
-0.0134806
0.238081
-0.258454
-0.253028
0.273401
-0.24237
-0.157376
0.1149
-0.344142
0.357068
0.0394981
-0.0524235
-0.381571
0.42198
-0.0498463
-0.318026
0.325659
-0.0561633
-0.345608
-0.0557365
-0.356021
0.36056
0.0457703
-0.0503091
0.316476
-0.318879
0.0578912
-0.055489
-0.577291
0.466248
0.16042
-0.0493775
-0.384473
0.402036
0.031798
-0.0493613
-0.535101
-0.0638394
0.650032
-0.0510908
0.476458
0.169125
-0.593461
-0.0521221
0.475487
-0.45347
0.0312643
-0.0532817
0.504719
-0.491573
0.0407392
-0.053885
0.0601672
-0.392133
-0.0104612
0.00820458
0.317723
0.204318
0.236853
-0.269704
0.215113
0.160212
-0.147814
0.340252
-0.231211
0.367286
-0.247282
-0.0241912
-0.288789
0.0594113
0.106142
-0.108451
-0.360776
0.0552832
-0.050528
-0.0558119
0.029069
-0.0500807
0.0789323
0.449862
-0.0523369
0.054768
-0.052617
0.506642
0.0522504
-0.0541731
-0.332811
0.0431826
-0.0559797
0.0432364
-0.0493476
-0.0535078
-0.324591
0.0604758
-0.0547631
-0.45572
-0.0720874
-0.0494832
0.0149226
-0.0509193
-0.124826
-0.381009
0.257377
-0.294231
-0.0447544
0.0545908
-0.162889
-0.0284988
-0.270649
0.288513
-0.161614
0.0215901
0.174018
-0.390815
0.274752
-0.235971
0.228727
0.217255
-0.188139
0.00262744
0.00032096
0.00173887
-0.107351
0.10232
-0.239361
-0.162183
-0.00785701
0.0172182
0.142246
0.300727
0.223674
-0.0440223
-0.343223
0.0531727
-0.279294
-0.0416738
0.0586417
-0.0478429
0.0397449
-0.0505437
-0.000380218
0.00491074
-0.266943
0.225544
-0.458928
0.132557
-0.0298569
-0.00171554
0.194495
0.0544806
-0.0475158
0.438045
0.0515748
-0.0528453
0.525594
-0.032483
-0.0653716
-0.42774
0.0591858
-0.0495629
0.235996
-0.350395
0.0835046
-0.335538
0.00966346
0.0267062
0.037443
0.261169
-0.275209
0.192156
-0.0490797
-0.299413
-0.106162
0.383507
-0.367983
-0.0796918
0.0855006
-0.00199035
-0.30975
0.0830442
0.0614442
-0.18702
-0.00415078
0.228618
-0.107546
-0.0028588
0.381382
-0.37144
0.185133
-0.103962
0.133942
-0.0111322
0.00334873
0.0407887
-0.0493265
0.0760868
0.0256439
0.105287
-0.050115
-0.423026
-0.0928198
0.281976
0.00975401
0.14517
-0.157339
0.0420316
-0.0515846
-0.0440322
0.261525
0.303057
-0.203034
-0.28065
0.180627
0.166555
-0.0609408
0.349277
-0.147111
-0.243019
0.0712675
-0.292644
0.278696
0.191886
0.153535