/*--------------------------------*- C++ -*----------------------------------*\
  =========                 |
  \\      /  F ield         | OpenFOAM: The Open Source CFD Toolbox
   \\    /   O peration     | Website:  https://openfoam.org
    \\  /    A nd           | Version:  10
     \\/     M anipulation  |
\*---------------------------------------------------------------------------*/
FoamFile
{
    format      ascii;
    class       volVectorField;
    location    "850";
    object      U;
}
// * * * * * * * * * * * * * * * * * * * * * * * * * * * * * * * * * * * * * //

dimensions      [0 1 -1 0 0 0 0];

internalField   nonuniform List<vector> 
23845
(
(0.712248 -0.107046 1.18122e-20)
(0.47598 0.0969701 -5.19471e-21)
(0.239506 -0.0117078 2.7461e-20)
(-0.136564 0.0166538 7.28502e-22)
(0.0762792 0.0585717 5.38461e-21)
(0.811742 -0.00723875 5.42173e-25)
(0.9165 -0.0287666 -1.28656e-20)
(-0.0756938 0.0663989 -2.66909e-22)
(0.935504 -0.00788797 6.17959e-24)
(0.853482 0.0966788 -5.80841e-21)
(0.448943 -0.0478888 -5.36867e-21)
(0.752376 -0.000856992 3.53419e-24)
(0.928201 0.0154603 1.99151e-23)
(0.891249 -0.00851151 1.54469e-24)
(0.714621 0.0339528 -2.16191e-20)
(0.934451 0.0734676 -1.03136e-21)
(0.809836 0.0205694 1.23502e-23)
(0.600614 -0.0161614 -1.36215e-23)
(0.948852 -0.0257563 -1.71444e-22)
(0.776984 0.00839021 2.80676e-22)
(0.889638 0.0981341 1.90982e-20)
(0.401712 -0.0361978 -9.55242e-21)
(1.05656 -0.0519324 -3.19871e-21)
(0.941927 -0.00832109 7.08058e-24)
(0.761001 0.0872306 -1.01126e-21)
(0.992947 0.00723732 -1.04698e-23)
(0.938002 0.0524163 1.06849e-20)
(0.806412 -0.00873922 4.303e-22)
(-0.0526717 -0.117675 7.81191e-21)
(0.802637 0.00954579 -1.68258e-22)
(-0.148754 -0.00884536 3.22543e-20)
(-0.0311253 0.0859849 4.17299e-22)
(0.415222 -0.0197408 1.01159e-20)
(0.649929 -0.0216692 9.41171e-24)
(0.749227 0.000542948 -1.45193e-23)
(0.742346 0.00422862 2.18184e-22)
(-0.0437358 0.116891 -7.16571e-21)
(0.751211 -0.00083616 -3.46771e-24)
(0.779612 -0.0042364 -1.77856e-23)
(0.919948 0.00908274 8.43056e-24)
(0.977063 -0.0320964 1.34483e-22)
(0.73651 -0.0159449 3.90871e-22)
(0.949278 -0.013795 -1.69475e-22)
(0.683958 0.0134019 -2.15103e-22)
(1.01102 -0.00739309 -5.33404e-23)
(0.886083 0.0161622 6.57694e-23)
(-0.070255 -0.0250526 -1.8548e-21)
(0.892248 -0.0704707 -4.6123e-21)
(-0.023596 0.00952587 1.56488e-21)
(-0.0595817 -0.115691 3.43668e-21)
(-0.049216 -0.0443058 7.16591e-22)
(0.155045 -0.0151873 -4.01465e-21)
(-0.0220811 -0.0408992 -3.64857e-21)
(0.858724 -0.00909188 -1.56784e-22)
(-0.0343216 0.0958679 7.60767e-21)
(0.866832 0.0206462 2.51023e-23)
(0.211259 0.0705942 2.70762e-20)
(-0.0908498 -0.0368636 1.87602e-20)
(0.783339 0.104435 -3.70894e-20)
(0.0104121 0.0260562 -1.73237e-20)
(-0.0428704 0.102944 2.55201e-21)
(0.697633 0.0151831 7.20047e-23)
(0.922942 0.0626108 -1.13962e-21)
(-0.0376412 -0.0967074 3.35635e-21)
(0.961156 -0.00842197 -1.24612e-27)
(0.910438 0.0149351 -8.20038e-23)
(0.978878 0.0348259 1.10001e-20)
(1.01944 0.00671985 9.30183e-23)
(1.01772 -0.0073509 -1.73471e-22)
(0.938121 -0.0328653 5.46504e-23)
(-0.0606569 0.0873876 2.72332e-22)
(0.146496 0.00571941 1.67482e-20)
(0.983817 0.00952611 8.81086e-24)
(0.795911 0.0317171 1.24552e-20)
(0.981209 -0.00815544 -2.7718e-22)
(0.657738 0.0327842 -7.75054e-23)
(0.757727 -0.00199161 -5.16863e-24)
(0.776684 -0.00461411 2.50037e-23)
(-0.118811 -0.0227112 3.82099e-21)
(0.789168 0.0304751 -7.87728e-24)
(0.968415 0.0698373 -2.58539e-21)
(0.681003 -0.0385428 -3.80327e-20)
(0.325814 0.085416 -4.5796e-21)
(-0.0851362 -0.0534293 -7.92416e-22)
(0.243364 -0.00263655 -7.87234e-21)
(0.750577 0.00177469 -3.45349e-23)
(0.609558 0.0583406 1.44737e-20)
(-0.0177042 -0.0135805 1.70126e-20)
(0.961382 -0.00790325 9.33814e-23)
(0.855726 0.0296393 -1.09243e-22)
(-0.0478721 -0.0818597 -1.26773e-20)
(0.972471 0.0414863 -6.42333e-22)
(-0.0481878 -0.106317 1.13264e-20)
(0.751358 -0.0049741 -1.73909e-22)
(-0.0879013 -0.0250589 2.81094e-21)
(-0.0536176 -0.0921128 -3.55402e-20)
(0.845183 -0.0197467 1.22783e-23)
(0.873706 -0.0730508 -3.58194e-22)
(0.979928 -0.00811428 2.06949e-23)
(-0.0103092 0.0381198 -8.19506e-21)
(0.850222 -0.0235119 4.46464e-23)
(0.975246 0.031331 3.7712e-21)
(0.4062 -0.0982853 1.49544e-20)
(-0.0689756 -0.0877855 -1.59048e-20)
(-0.0540959 -0.0939856 -2.9587e-20)
(-0.0934862 -0.045352 5.22854e-21)
(0.831503 -0.00818768 7.68099e-24)
(0.992997 -0.00807569 1.62425e-22)
(1.03534 0.0263209 -1.69924e-21)
(0.712154 0.0139916 2.06387e-22)
(0.49734 -0.0437298 -1.56955e-21)
(0.756189 -0.00218572 -7.0873e-24)
(0.358152 0.0119647 1.60541e-20)
(0.846843 -0.0888848 -2.19886e-21)
(0.746107 0.00477711 -1.09759e-22)
(0.95463 -0.0891177 -2.73007e-21)
(0.978241 -0.00780004 -1.22275e-22)
(0.940412 0.0834473 -5.88755e-21)
(-0.0525085 -0.119179 5.73847e-21)
(-0.0223374 0.0840945 -1.58849e-20)
(0.769082 -0.00356331 -2.31126e-23)
(-0.0395231 -0.0938083 -1.9702e-21)
(0.938732 0.0325312 6.26424e-23)
(0.0227065 0.0437276 3.4956e-20)
(0.959425 0.0299411 -3.64652e-21)
(0.987765 0.00764638 -1.68805e-23)
(-0.0458526 0.0994868 2.14856e-21)
(-0.0606471 -0.111068 -1.2984e-20)
(0.125163 0.0226467 1.05537e-21)
(-0.0582213 -0.0340925 1.26483e-20)
(0.128962 0.0275052 1.85647e-20)
(0.471496 0.0849627 5.91617e-22)
(0.317585 -0.0511812 2.67971e-22)
(0.859499 -0.00816354 1.62243e-24)
(0.825716 -0.0289808 1.81716e-23)
(0.57358 -0.107226 4.32731e-21)
(-0.0658779 0.094018 3.32794e-20)
(0.753721 -0.00100751 1.01173e-23)
(1.0266 -0.0304339 6.48468e-23)
(0.784435 -0.00500206 1.71261e-23)
(-0.055137 -0.123983 -1.57004e-20)
(0.727593 -0.0138908 -1.36858e-22)
(0.768888 0.00530312 5.12439e-23)
(0.660353 0.0127905 3.55862e-22)
(0.928711 -0.0542444 -2.35057e-21)
(0.700514 0.0121315 -2.34451e-22)
(0.953892 -0.0879567 -3.17226e-22)
(0.388736 0.0219402 4.28729e-20)
(0.00896055 0.0734139 -1.29806e-20)
(0.868583 0.0395757 2.14711e-22)
(0.437979 0.0175772 -1.6852e-20)
(0.95192 0.010855 -3.21407e-23)
(0.443981 -0.0647569 1.54816e-20)
(0.905437 -0.0111674 9.38752e-23)
(0.320204 -0.00541378 -5.84167e-21)
(0.729741 0.0506806 -8.37038e-22)
(0.233059 -0.08341 -5.17242e-21)
(0.752389 -0.00309158 -7.25596e-23)
(0.154831 0.0206081 1.29862e-21)
(-0.0538166 -0.107469 3.7426e-21)
(0.927433 0.0409996 2.85213e-22)
(0.659188 -0.0311273 -1.8181e-21)
(-0.0831511 0.0123507 -1.02999e-21)
(0.953527 -0.00811044 1.70269e-23)
(0.993768 -0.0157424 -2.05283e-23)
(0.790128 0.0392071 1.73168e-22)
(0.83004 -0.00743969 -2.7068e-23)
(-0.0448527 0.101213 -5.65441e-21)
(0.79818 -0.00833004 -3.30917e-23)
(0.697885 -0.0112737 3.03066e-22)
(0.843039 0.00819718 2.4237e-23)
(-0.11802 0.0214132 5.21144e-21)
(0.947832 -0.00878371 1.40101e-23)
(-0.0117758 0.0453611 -7.37193e-21)
(0.958759 0.00855378 2.81997e-22)
(-0.107016 -0.00169704 -4.47786e-21)
(0.975784 0.0496033 6.27906e-22)
(0.673387 0.0611313 1.51557e-21)
(0.993453 -0.00734464 -1.09975e-23)
(0.756984 -0.00342101 2.56093e-23)
(0.00710041 -0.0416085 6.91603e-21)
(-0.0412894 -0.0248782 8.30233e-22)
(0.762024 0.035151 1.09973e-20)
(0.483436 -0.0359166 -6.41136e-22)
(0.925491 -0.0630344 -3.04235e-21)
(0.917462 0.0201685 9.41876e-24)
(0.726129 0.0155577 -6.18159e-23)
(-0.0774854 -0.0606238 2.74964e-21)
(-0.0552784 0.117412 1.84389e-21)
(0.763917 -0.0164838 -5.90509e-23)
(-0.0466681 0.102204 2.94457e-20)
(0.889379 -0.00837532 2.60283e-23)
(0.89529 0.00867846 8.37782e-24)
(0.847802 0.00841301 -1.68276e-23)
(0.936868 0.0504293 -8.4474e-22)
(0.910028 -0.00841333 -6.91542e-23)
(-0.0648493 -0.0927131 -2.73666e-21)
(-0.0556611 0.108467 1.94393e-21)
(-0.0789175 -0.0704 -1.00596e-20)
(0.564063 -0.0519814 2.62495e-22)
(0.702101 0.0380488 -7.15598e-23)
(0.898551 -0.00925906 -3.20091e-22)
(0.00248292 0.0745819 -6.84865e-21)
(0.350826 0.0683232 1.19757e-21)
(-0.0820994 0.0588689 1.16207e-20)
(-0.0840134 0.0260076 7.33659e-22)
(0.217558 0.00206792 -3.82835e-20)
(0.80654 -0.00614732 -1.58919e-23)
(0.738184 -0.0906342 -1.14344e-20)
(0.61198 0.0200431 -1.91442e-22)
(0.720875 0.0286497 -5.31588e-23)
(-0.0484085 0.11454 1.06198e-20)
(0.976281 -0.0580162 9.49625e-23)
(0.829977 -0.0106673 4.3671e-23)
(-0.0343088 -0.0363284 2.50996e-21)
(-0.0396547 -0.107178 -5.99439e-21)
(0.248731 0.0481224 -3.71951e-21)
(0.703219 0.0163821 -5.6398e-23)
(-0.0525834 0.11843 1.56334e-20)
(0.14901 0.0271537 -1.87261e-22)
(0.979047 -0.0104627 -3.22221e-23)
(0.73063 0.0332186 -6.50494e-21)
(-0.0668062 0.090788 -2.08067e-20)
(0.81643 0.0515291 -1.00732e-21)
(0.672891 0.0106019 -1.16201e-22)
(0.457466 -0.0210718 2.14726e-20)
(-0.0594774 -0.112547 -7.487e-21)
(0.887046 -0.00822856 5.79649e-23)
(0.811276 0.00811371 3.41606e-24)
(0.97686 0.0324039 5.42557e-22)
(0.771721 -0.00541088 1.23015e-22)
(-0.0282945 -0.0065351 -9.48984e-21)
(0.755572 -0.00226476 5.59462e-24)
(1.01444 0.00664376 -2.38499e-23)
(0.117766 0.0635541 8.40592e-21)
(-0.0497539 -0.112752 -1.06325e-20)
(0.967585 -0.00876392 6.38037e-23)
(-0.153668 0.00788978 8.81251e-21)
(0.955899 0.00838066 9.57532e-23)
(-0.0794934 -0.0263288 2.20153e-20)
(-0.0222615 0.0247497 8.72741e-21)
(0.941292 -0.0870433 6.61015e-21)
(-0.0970105 -0.0432168 -1.28409e-20)
(0.124058 0.0662196 -1.39267e-20)
(-0.0425338 0.0921631 3.15358e-21)
(0.913715 0.0653013 -2.41955e-22)
(0.839908 -0.00817943 3.6839e-24)
(1.01793 -0.00676014 2.87805e-22)
(-0.0964462 0.011261 2.11981e-21)
(0.608992 -0.0303075 5.22932e-21)
(0.853863 -0.0150098 -4.85396e-23)
(0.749597 0.00277365 -1.00203e-23)
(-0.0512292 0.0538388 -4.40341e-21)
(0.965911 0.0147016 4.25359e-25)
(0.788472 -0.0297543 -8.01643e-21)
(-0.0508651 0.0872694 2.18094e-21)
(-0.00481094 0.073387 4.2207e-20)
(-0.061613 0.0613835 7.52874e-22)
(0.745038 -0.00470393 1.89408e-23)
(0.933309 -0.00883734 -1.1652e-22)
(-0.0135117 0.000426164 -2.1107e-20)
(0.745557 -0.00215482 -1.92702e-23)
(-0.0501233 0.0952313 -3.47717e-21)
(0.545304 -0.045552 1.88993e-21)
(0.63835 0.0462846 -2.63429e-23)
(0.944887 0.00798981 -2.54998e-23)
(-0.116272 -0.00460365 -3.1085e-21)
(0.0559239 0.0448398 -1.41568e-21)
(-0.140334 -0.00159905 5.52673e-21)
(-0.14786 0.00959086 -1.55488e-20)
(0.769247 -0.00392523 1.1615e-23)
(-0.114316 0.0269539 -3.11322e-21)
(-0.0438696 -0.014692 -5.10728e-22)
(0.882859 0.00885552 -7.12606e-23)
(0.438305 -0.031935 -1.09428e-21)
(0.902671 0.00888524 1.04365e-23)
(-0.0590308 -0.0693095 6.92897e-21)
(0.878095 -0.00817861 -3.01784e-23)
(-0.0653377 -0.0719908 3.71011e-21)
(1.05886 0.0555598 1.82747e-20)
(-0.0836653 -0.0474757 1.88923e-20)
(0.815782 0.00820606 -1.79668e-23)
(-0.0604684 -0.0342433 1.01143e-20)
(0.877459 -0.0490464 6.0027e-23)
(0.746604 0.000129005 -1.49243e-23)
(-0.0204505 -0.0881527 -1.29254e-20)
(-0.0265389 0.0353479 -3.95358e-21)
(0.912736 -0.00820883 -3.91555e-23)
(-0.0851813 0.0380556 -3.89082e-22)
(0.427204 -0.0195101 1.00387e-20)
(-0.10865 0.0100305 2.56754e-21)
(-0.0364378 0.0294954 -1.05941e-20)
(-0.0351124 -0.0982213 2.60335e-20)
(-0.0604431 0.0724741 -5.22725e-21)
(-0.0964542 0.02343 3.3697e-22)
(0.750077 -0.00105998 -5.70009e-24)
(-0.0113668 0.0829627 1.67268e-20)
(0.854495 -0.00857263 -9.04359e-23)
(0.749112 0.00156744 -5.24563e-24)
(-0.0527953 -0.117936 -6.91821e-21)
(0.144274 0.0169212 3.13369e-20)
(0.456845 -0.018043 1.49655e-20)
(-0.0474291 -0.111522 1.91229e-20)
(-0.156019 -0.00108757 8.11499e-20)
(0.861916 0.008465 2.57181e-23)
(-0.1608 0.00178066 -4.72278e-20)
(-0.0394988 -0.0927009 -1.30333e-20)
(-0.0461021 -0.0292072 -3.15883e-21)
(0.859599 -0.0227261 1.77386e-24)
(-0.0646741 0.0977976 4.49095e-21)
(-0.0415936 5.12465e-05 -1.28139e-20)
(0.325746 -0.0607045 3.1708e-20)
(0.919373 -0.02085 1.04945e-23)
(0.838967 0.00835216 9.20398e-23)
(0.0532139 0.0016775 3.08941e-20)
(-0.056448 -0.122272 1.45325e-20)
(-0.0170821 -0.08568 1.80152e-21)
(0.322945 0.0502482 -1.40981e-20)
(-0.0514 0.0956748 5.63106e-21)
(0.975243 -0.0114917 1.28784e-23)
(-0.0555888 0.0876677 8.80395e-21)
(-0.0467563 0.108647 -8.08733e-21)
(0.0220607 0.0638797 -2.29951e-20)
(0.815113 -0.00917792 -1.6586e-22)
(0.533006 -0.0282291 -1.24855e-20)
(0.802087 0.00726754 -1.75914e-23)
(-0.136524 -0.00769697 -1.94337e-20)
(-0.0780233 -0.0263457 1.16039e-20)
(-0.00193202 -0.0705965 -6.12358e-22)
(0.571754 0.016051 4.97648e-22)
(0.340258 -0.0298199 5.22513e-20)
(0.819865 -0.0467236 -1.9317e-22)
(-0.0498801 -0.0672592 9.66111e-21)
(0.740561 -0.000329488 1.61057e-23)
(-0.00038874 -0.07505 -4.66896e-21)
(-0.139937 0.0131156 -2.26933e-21)
(-0.0714516 -0.0148659 -1.20732e-20)
(0.589911 0.0137899 -2.45839e-22)
(0.724082 0.0111518 2.34458e-22)
(-0.123201 -0.00970391 1.07621e-20)
(-0.0896252 0.0232361 -1.3264e-21)
(0.0152386 0.0698673 -1.32537e-20)
(0.450789 -0.0403245 6.57152e-21)
(1.0124 0.00734568 -4.28455e-23)
(1.01302 -0.00731934 1.75197e-23)
(-0.0698137 0.0671651 -4.84784e-21)
(0.742508 0.00189406 -3.68141e-23)
(-0.0556926 -0.0814438 6.06301e-21)
(-0.128155 -0.014913 9.19016e-21)
(0.366332 -0.0159665 -4.18188e-21)
(-0.0962596 -0.0113456 1.64116e-20)
(0.1225 -0.0297249 -6.96527e-21)
(-0.061851 0.109608 2.06231e-20)
(-0.0562114 -0.0536683 -1.07882e-20)
(-0.0210847 0.0418226 2.15556e-20)
(0.893513 0.00863252 5.35126e-23)
(0.687033 -0.00958107 -2.22937e-23)
(0.970202 0.0090815 -3.01486e-23)
(0.477718 0.0264742 -7.51122e-21)
(-0.0966903 -0.039437 3.60654e-21)
(0.0665952 0.0356824 -1.22348e-20)
(0.966317 0.00756937 -4.40292e-23)
(0.947709 -0.0889975 -7.0618e-21)
(0.887201 -0.0438513 -8.617e-22)
(-0.0538675 0.119078 1.06847e-20)
(0.840079 -0.00774856 1.74138e-24)
(0.025619 -0.0569459 -3.12274e-21)
(0.761864 -0.00654856 7.16046e-23)
(-0.0526763 -0.119486 6.72762e-21)
(0.992767 0.00812044 3.28854e-23)
(0.703052 -0.0126955 -5.28333e-23)
(-0.0470635 -0.0934753 1.91181e-20)
(-0.0305248 0.066766 -1.38106e-20)
(0.75336 0.00205819 7.99156e-24)
(0.756434 -0.0041239 3.7364e-23)
(-0.0518551 0.0773771 -3.46786e-21)
(0.04988 -0.00774552 -2.19774e-20)
(-0.117858 0.0161518 -3.67691e-21)
(0.719791 -0.0127669 -1.33907e-22)
(-0.0858418 0.0361109 6.89165e-21)
(0.652419 -0.0364263 -1.2238e-20)
(0.744821 -0.0025779 -1.17314e-23)
(1.02647 -0.0645903 1.50631e-20)
(1.01539 -0.00729089 3.77239e-23)
(1.01399 0.00701769 -7.22054e-25)
(0.763015 -0.00321343 -1.23458e-23)
(0.787709 -0.00604068 -2.23937e-22)
(-0.116377 -0.0175126 -6.36963e-21)
(0.615906 0.0312317 -6.04894e-24)
(-0.0980289 -0.0256644 -1.34803e-20)
(0.941982 -0.0400803 -2.72304e-21)
(0.690899 0.0109865 7.79502e-23)
(-0.0359806 -0.083972 3.08007e-20)
(-0.0527894 -0.0851931 7.56273e-21)
(-0.038715 0.0148176 9.49711e-21)
(-0.0533971 0.113271 6.65062e-21)
(0.552905 0.0396378 -8.59459e-22)
(0.999885 -0.00769688 -7.50368e-24)
(0.933597 -0.0336793 -2.61297e-22)
(0.738802 -0.00063706 6.32436e-23)
(-0.0249355 -0.00888456 -1.80156e-20)
(-0.159827 0.000637384 4.83175e-20)
(-0.0745652 0.044613 2.65341e-22)
(-0.0531949 0.0214595 -7.71866e-21)
(0.124075 0.0483216 1.94617e-20)
(0.693391 0.0369283 1.16107e-20)
(0.801816 -0.00596093 1.13196e-24)
(-0.0350151 0.0770284 1.96328e-20)
(-0.0538881 -0.101436 9.79754e-22)
(-0.0296864 0.0811794 -1.61907e-20)
(0.549138 -0.023435 -1.04918e-20)
(1.01575 0.00634918 2.27468e-23)
(0.853694 0.0315088 9.81048e-21)
(0.0283287 -0.0641332 1.14417e-20)
(0.332911 0.0939592 -1.5388e-20)
(0.0796026 -0.00324808 -1.63841e-20)
(-0.135968 -0.00502992 1.74462e-20)
(0.439728 -0.0266123 -4.31209e-22)
(0.786774 0.00646019 5.61366e-23)
(0.961241 0.0921993 1.37492e-21)
(0.141742 -0.00796224 6.91667e-21)
(0.747423 0.010246 9.13056e-23)
(0.923929 -0.00815742 5.87142e-24)
(-0.130262 -0.00199746 6.21247e-21)
(-0.046218 0.0870258 6.56932e-21)
(0.652221 0.101074 5.94728e-20)
(0.109576 0.0131647 -6.40875e-21)
(-0.138004 -0.00697474 1.45647e-20)
(0.0108896 0.0327631 1.15818e-20)
(0.0527612 0.0308513 -2.58478e-20)
(0.899064 -0.00829055 5.19878e-24)
(0.640529 0.0184804 4.44462e-23)
(0.0125712 -0.070071 -2.51437e-20)
(0.562142 0.00732761 3.79595e-22)
(0.855455 0.0126191 6.75041e-23)
(0.987554 -0.00910646 6.20181e-23)
(0.751259 0.00131134 3.13147e-23)
(0.918532 0.0194662 2.68831e-24)
(-0.0463007 -0.110299 4.30466e-21)
(-0.0218023 0.0265018 4.20066e-21)
(0.573669 0.0307152 -4.93422e-22)
(0.0517295 -0.0223516 -1.55773e-20)
(-0.0563881 0.0966709 -2.12053e-20)
(0.115005 0.0298647 -5.00281e-21)
(-0.149339 -0.00279312 -8.25868e-21)
(-0.0172188 -0.0839815 -6.68261e-21)
(0.789361 -0.00914411 3.47462e-22)
(-0.162672 0.00381805 -2.32109e-20)
(0.780992 0.00641908 -3.49458e-23)
(-0.0916085 0.0305311 -6.03572e-21)
(-0.12218 0.00237322 3.03731e-21)
(0.944944 -0.0108513 -5.42883e-23)
(0.022014 0.0354316 -1.60737e-20)
(0.744597 0.00307571 -2.18751e-22)
(1.00967 0.00677042 -1.16593e-22)
(0.0134899 -0.0693308 -1.63163e-21)
(0.00398249 0.0303352 4.92141e-21)
(0.344875 0.0693357 2.28125e-21)
(-0.0682916 0.0634716 1.29637e-20)
(0.874072 -0.00923455 1.92445e-22)
(0.775073 -0.0900066 -6.68872e-21)
(-0.148554 0.00431341 -5.24991e-20)
(-0.0626986 -0.102396 2.26531e-20)
(-0.0385373 -0.0286904 -7.22978e-21)
(0.780472 0.00648543 5.7585e-23)
(0.788504 -0.00568116 -1.41235e-23)
(0.837231 0.00867 3.11507e-23)
(-0.0314379 -0.0213765 3.49598e-21)
(1.01109 0.00761516 -1.56879e-23)
(0.339138 -0.0110295 -4.05154e-21)
(0.810731 0.00855506 -4.50651e-23)
(0.819676 -0.00692248 -1.36115e-23)
(-0.168337 -0.00109687 -3.84638e-21)
(-0.0393433 0.0907565 7.88308e-21)
(-0.0318261 0.0908585 -2.22297e-20)
(0.102668 -0.0613216 7.34025e-21)
(0.958359 -0.00999358 -5.18788e-23)
(-0.0412196 0.0810484 -6.15962e-21)
(0.843387 -0.0092602 -2.77469e-22)
(0.888621 0.0337317 9.12858e-23)
(-0.135097 0.00971497 2.24104e-21)
(-0.162369 -9.36016e-05 -2.10245e-20)
(-0.163076 0.00269959 -8.40968e-21)
(0.38457 0.0307625 -3.0186e-21)
(0.563552 0.0276457 4.81073e-24)
(0.532272 0.0340396 -1.07551e-20)
(0.76293 -0.00346704 1.75513e-23)
(0.756775 0.00345834 -2.41122e-23)
(0.277593 0.0241525 -3.68486e-21)
(0.021956 0.0614389 -9.61853e-21)
(0.989854 0.00799493 -1.78136e-23)
(0.16385 -0.0130428 2.27126e-20)
(-0.0557878 0.0877689 6.93004e-21)
(-0.156264 0.00348612 -1.66581e-20)
(-0.0721822 0.0655976 -7.46969e-21)
(-0.106861 0.0162067 6.7569e-20)
(0.984337 -0.00972705 -2.59349e-22)
(0.0719623 0.00620168 -7.39261e-21)
(0.973655 -0.0078717 5.14098e-24)
(0.750182 0.00344628 1.08043e-22)
(0.461151 -0.0546861 1.86317e-20)
(-0.0526437 0.12459 -1.36885e-20)
(0.0412575 0.0597135 2.09906e-21)
(-0.129352 0.00238448 -1.52731e-20)
(-0.0949272 0.0460729 1.19915e-20)
(-0.108078 -0.0342396 1.30764e-20)
(0.521122 -0.0382411 1.63175e-21)
(0.961039 0.0176377 2.94604e-23)
(0.772583 -0.00771766 -7.11807e-23)
(0.0309224 0.0621101 -2.36536e-20)
(-0.163895 -0.00259961 1.11204e-20)
(0.0554711 -0.0531505 -1.81188e-20)
(-0.0451607 -0.117739 3.08543e-20)
(-0.168048 0.000194549 1.04071e-20)
(0.872376 0.00892755 -4.74644e-23)
(1.00969 0.00774453 9.70112e-25)
(-0.165956 -0.00120426 4.77692e-21)
(0.316885 -0.00710569 -9.73699e-21)
(0.284938 -0.00119892 5.25917e-21)
(0.749076 0.0118686 1.7912e-22)
(-0.0334514 -0.100807 2.57531e-20)
(0.878531 -0.00977116 5.45187e-24)
(0.60158 0.0176718 -5.29724e-23)
(-0.0173658 -0.0800127 1.16702e-20)
(1.00751 0.00741178 -2.50674e-23)
(0.850689 -0.0372281 5.72127e-21)
(0.745701 -0.0334727 -5.92967e-21)
(-0.0302079 0.0948464 -2.46658e-20)
(0.981059 -0.0727885 1.18806e-22)
(-0.0528439 0.117034 -3.572e-21)
(-0.0513613 -0.111494 1.01838e-21)
(0.210831 -0.00506738 -5.37747e-21)
(0.115745 -0.0486806 2.40665e-20)
(1.07466 0.0443986 -1.4908e-20)
(0.90112 0.0256626 1.90619e-25)
(0.960126 0.0183471 1.43408e-23)
(0.851971 -0.00955284 1.32741e-22)
(0.00298524 -0.075536 1.81417e-20)
(-0.0744234 0.00202657 -8.53664e-20)
(-0.119379 -0.0266124 -1.58483e-20)
(0.250929 0.00334016 6.37112e-21)
(0.883352 -0.00908063 -9.33341e-23)
(1.05526 0.0621368 1.57553e-20)
(1.05175 -0.0590037 -2.61436e-21)
(0.934291 -0.0458249 7.07119e-23)
(1.04526 -0.0676489 -7.13314e-21)
(0.355383 0.0283021 1.01204e-21)
(0.936644 -0.0139457 4.64829e-22)
(0.825557 -0.00966572 7.77648e-23)
(0.927124 0.0125507 6.59167e-23)
(0.910045 -0.0113698 5.16354e-23)
(0.747902 0.000255601 3.05072e-23)
(0.02023 -0.0449651 -2.79873e-21)
(0.900746 -0.0130008 -1.69879e-22)
(-0.0862312 0.0518831 -4.24583e-21)
(0.509427 0.0799287 -1.6332e-20)
(0.715065 -0.0107258 -6.25907e-22)
(0.053076 0.0548667 -1.23847e-20)
(0.740699 0.00149062 -1.2228e-23)
(0.78461 0.0075898 -2.81268e-22)
(-0.0948953 -0.00126558 1.78957e-21)
(-0.134824 0.00549526 -2.16674e-21)
(0.0391128 -0.0387586 -9.80972e-21)
(0.772323 -0.00829564 2.2099e-23)
(0.709539 0.0128793 -4.88953e-24)
(-0.0514142 -0.0768649 -5.32634e-23)
(-0.0483279 0.0967448 5.34766e-22)
(0.984244 0.00743846 6.34143e-23)
(-0.0487053 0.113169 -2.22423e-20)
(0.964267 0.0153815 -1.38757e-23)
(1.00947 -0.00789973 3.82196e-23)
(0.815237 -0.0419946 2.53405e-21)
(0.916636 0.0210809 -7.25636e-24)
(0.828737 0.00830985 1.61048e-22)
(0.918115 -0.0780867 6.89037e-21)
(0.0157965 -0.0378373 -1.75258e-21)
(0.00602658 -0.0578626 -4.5567e-20)
(0.210504 -0.0131244 8.45015e-21)
(-0.0652121 -0.0572641 8.39667e-21)
(-0.0542656 0.0198669 1.42548e-20)
(1.00692 -0.00847347 3.18225e-23)
(0.756605 -0.00211191 -1.03736e-24)
(0.92994 -0.0480769 5.34042e-22)
(0.329092 0.0210082 8.57192e-21)
(-0.00922596 0.077681 1.10431e-20)
(0.670882 -0.00582657 3.49161e-22)
(0.985689 0.00931639 8.56792e-25)
(0.979152 -0.00949383 1.07761e-23)
(-0.0656817 -0.0424627 -1.16893e-20)
(0.976384 -0.00940704 3.15121e-22)
(1.08231 -0.037895 -6.72e-21)
(0.425936 0.0220458 1.20343e-21)
(0.654757 -0.100446 -3.99146e-21)
(0.469911 -0.029153 -8.10213e-22)
(-0.0587473 -0.0899969 -3.96015e-21)
(0.671452 -0.00717124 2.6682e-22)
(1.01028 -0.00723864 -5.64517e-23)
(0.873112 -0.00862693 2.96979e-22)
(0.604955 -0.0149303 4.4334e-23)
(0.761628 0.0038529 1.9536e-23)
(0.144879 -0.0101987 8.5723e-21)
(0.852417 -0.0118603 -1.80045e-22)
(-0.0229015 0.00629402 -3.59106e-21)
(0.600297 0.0354335 -9.25691e-21)
(-0.0597693 0.0298153 -1.07944e-21)
(0.635283 0.086016 -4.2373e-22)
(-0.0627896 0.0493688 -1.08822e-21)
(-0.0410387 0.0157766 -2.20944e-20)
(0.848056 -0.0324767 -1.93548e-21)
(0.744769 0.0495802 1.08195e-21)
(-0.132324 -0.00609211 7.5332e-20)
(0.383717 0.090685 -1.02964e-20)
(0.209708 -0.066672 -1.86261e-20)
(0.0264227 0.0370938 -5.13479e-21)
(-0.00435263 0.0709861 3.05815e-20)
(0.595868 0.104775 2.44005e-20)
(0.119337 0.0229472 -2.48504e-20)
(0.259649 0.0783243 1.86017e-20)
(0.810441 0.0109209 -1.92267e-22)
(0.864216 -0.0107244 -3.04833e-23)
(-0.0204261 -0.0171261 2.2193e-20)
(-0.05497 -0.101965 -2.9436e-21)
(-0.0822551 -0.0140586 4.03059e-20)
(0.714806 0.0427141 1.72938e-23)
(0.211564 0.0783682 -3.15658e-20)
(0.482506 0.012238 6.79283e-23)
(0.980089 -0.0283767 -3.35016e-23)
(0.614086 0.00716206 8.48238e-22)
(0.989593 -0.0187537 1.0947e-23)
(0.978096 -0.0719292 2.66884e-21)
(0.930003 0.0146217 3.48758e-23)
(0.899934 -0.0127558 -1.09687e-22)
(-0.140495 0.0131936 2.53653e-20)
(0.808857 -0.00911473 2.17697e-23)
(0.752221 0.00207749 5.33297e-23)
(0.402478 -0.0149475 3.06781e-20)
(0.486013 0.103571 6.92117e-21)
(0.929891 -0.0809955 2.37005e-21)
(1.00643 -0.00908402 2.13632e-23)
(0.49032 0.028518 -4.05093e-22)
(0.0361062 -0.0506996 -5.57089e-21)
(0.605021 0.0272707 -3.14665e-22)
(0.768252 -0.00643847 -1.18419e-22)
(0.962661 0.0165168 -6.35127e-24)
(0.740621 -0.106867 -1.44318e-20)
(0.518786 0.0731909 1.99591e-21)
(0.838392 -0.0988708 -4.44974e-21)
(0.967497 0.0140292 -9.19852e-24)
(0.643565 0.0829244 -3.30946e-23)
(0.177432 0.0149446 -1.88449e-21)
(0.732389 0.00316154 7.02036e-23)
(0.745479 0.00126817 -4.02743e-23)
(0.0815293 0.00670001 -8.46483e-21)
(-0.10385 -0.0370348 9.17805e-21)
(-0.0362439 -0.100522 -3.26668e-20)
(0.322033 -0.0188682 9.55841e-21)
(0.0463338 -0.0545653 -9.88322e-23)
(0.765276 0.0841122 9.74243e-22)
(-0.0140733 0.0706654 2.07517e-20)
(0.481066 0.0453804 -4.28415e-22)
(0.676247 0.032485 -6.73481e-23)
(0.905372 0.0288401 1.09326e-22)
(0.712028 0.0267108 5.86819e-25)
(0.266928 0.0918541 1.25728e-20)
(0.77786 -0.0270585 4.22592e-24)
(1.00401 -0.00786909 -8.45529e-23)
(0.990776 -0.0177811 -2.1799e-23)
(0.116709 0.0616696 1.75349e-20)
(-0.171102 0.000837627 3.10311e-20)
(0.545677 -0.0731122 -1.12528e-21)
(0.979356 -0.0700153 -6.15387e-22)
(0.452796 0.0137627 -3.26258e-22)
(0.625625 -0.0530515 4.04774e-22)
(0.414021 0.0106416 -2.72033e-22)
(0.457702 0.00881282 4.2966e-22)
(0.189375 0.0132801 1.18335e-20)
(0.48561 0.00774216 -2.23142e-22)
(0.126307 0.014075 1.67649e-20)
(0.669814 -0.0528907 1.18657e-21)
(0.774645 0.0281425 -3.12319e-23)
(0.578711 -0.0575454 -4.51177e-21)
(0.521182 0.00353918 -1.3561e-22)
(0.773514 0.0143697 3.70807e-22)
(0.545459 0.00567065 1.67358e-22)
(0.774282 0.0272077 -2.44972e-24)
(0.502956 0.0793473 -4.66884e-21)
(0.869291 0.0192042 2.53322e-23)
(0.56891 0.00252233 -7.05298e-22)
(0.388763 0.0573896 -6.91782e-21)
(0.649246 0.0804234 1.40045e-21)
(0.59711 0.00548507 -6.43977e-22)
(0.790719 -0.0167844 8.33579e-23)
(0.423906 0.00465523 5.92857e-22)
(0.378492 0.000269578 3.05735e-22)
(0.334323 -0.00234728 5.27055e-22)
(0.270576 0.00656454 -5.60759e-21)
(0.214133 0.00989541 -6.85836e-21)
(0.46564 0.00243256 -2.68147e-22)
(0.144106 0.00170645 -1.41356e-20)
(0.492458 0.00216943 5.3438e-23)
(0.637135 -0.0578191 7.81606e-22)
(0.530747 0.00031278 -5.36187e-24)
(0.701981 -0.052356 -1.597e-22)
(0.549635 0.00231038 1.07258e-22)
(0.659998 -0.0199084 -4.18702e-23)
(0.716645 -0.0247123 -2.33366e-23)
(0.578372 0.00130228 -2.20184e-23)
(0.612679 0.00428999 -7.22067e-22)
(0.600186 0.00107137 3.25859e-22)
(0.955723 -0.0208626 -1.06966e-22)
(0.815967 0.0187116 -1.02042e-23)
(-0.163235 -0.000206637 -2.7004e-20)
(0.953969 -0.00907614 -6.01943e-23)
(0.818972 -0.017406 -2.18268e-22)
(0.81076 0.0202541 9.73914e-23)
(0.61576 0.0010799 6.61969e-22)
(0.820972 -0.00792325 2.4901e-22)
(0.556592 -0.0398775 1.88505e-21)
(0.627158 0.00261085 3.72449e-23)
(0.391896 0.0155662 1.30548e-21)
(0.343297 0.0138922 4.08235e-22)
(0.510473 0.0121061 1.99978e-22)
(0.635588 -0.000820517 -3.07195e-22)
(0.813647 0.0180905 4.29635e-24)
(0.73682 -0.00427483 -5.72738e-23)
(0.838164 -0.0689777 -1.4739e-21)
(0.859235 -0.0546906 -8.80717e-22)
(0.0809795 -0.0199894 3.08631e-20)
(0.944209 -0.0117523 -1.84657e-22)
(0.431489 -0.0181466 -3.02247e-22)
(0.652002 0.000613417 -2.85576e-22)
(0.609756 -0.014007 -6.17273e-23)
(0.754441 -0.00627448 -1.89611e-22)
(0.820429 0.0177557 1.37214e-23)
(0.269574 0.0320194 -1.04639e-22)
(0.655955 0.0194061 -5.22276e-22)
(0.0045835 0.00389872 -4.74958e-21)
(0.64427 0.00593032 1.21494e-22)
(0.899043 -0.00888444 -7.12723e-23)
(0.833708 0.0119928 7.70491e-23)
(1.00117 -0.00738054 -1.29905e-22)
(0.663868 0.00179605 -7.73348e-23)
(0.699852 0.0359129 7.90036e-23)
(-0.0542265 0.0831347 -1.53417e-20)
(0.976087 -0.00896193 1.90177e-22)
(0.660987 0.00602649 -7.40877e-24)
(0.108905 -0.00499369 8.82362e-21)
(0.666619 0.00114128 3.79847e-22)
(0.8162 0.0120337 -1.72327e-23)
(0.783941 0.00993068 1.37094e-22)
(0.388515 -0.0254365 -4.04845e-20)
(0.788857 0.01261 9.31474e-23)
(1.01523 -0.00716838 -3.49065e-23)
(0.515182 0.0759749 2.43528e-21)
(0.813936 0.019034 -3.9167e-23)
(0.0135021 0.0579125 4.76352e-21)
(0.655049 -0.0646842 -3.82482e-21)
(0.695274 -0.0562886 -3.86198e-21)
(0.243652 0.0110749 -3.64203e-21)
(0.296239 0.00400156 -6.45368e-21)
(0.167347 -0.0179714 3.49485e-20)
(0.762368 0.0147881 -2.05309e-22)
(0.477571 -0.00164868 6.20585e-22)
(0.492168 0.0268587 -2.49392e-22)
(0.407199 0.0314486 2.03659e-21)
(0.504126 -0.000305497 1.3382e-22)
(0.845415 0.0466256 -3.77036e-22)
(0.559517 0.000875633 2.00942e-22)
(0.347604 0.0898999 -3.54194e-20)
(0.586235 0.00448049 -1.41818e-23)
(0.681922 0.000923676 1.62134e-22)
(0.223953 -0.00173365 -5.1326e-21)
(0.280226 -0.00671242 3.15301e-21)
(0.310112 0.0456318 8.58355e-21)
(-0.103963 -0.0163038 -1.69282e-20)
(0.730403 -0.0503537 1.90017e-21)
(0.807421 0.012047 4.72931e-23)
(0.225027 0.0784648 1.77128e-20)
(0.697573 0.0569312 -6.37869e-22)
(0.716888 0.0239239 -3.18851e-22)
(0.6076 -0.00138232 5.55645e-23)
(0.554398 -0.00249012 -2.33581e-23)
(-0.045102 0.0455811 3.31993e-21)
(0.902382 0.0091613 3.16573e-23)
(0.657352 -0.0463088 -1.31452e-21)
(0.677647 0.0041387 8.69895e-23)
(0.9212 0.0172948 -5.29233e-24)
(0.652619 0.0113466 -3.55686e-22)
(0.681017 0.00624126 -2.35089e-22)
(0.679149 0.00248432 -3.24517e-22)
(0.623419 -0.0020263 -6.86854e-22)
(0.83125 -0.0185054 -2.31852e-23)
(0.721174 -0.0234874 5.78297e-23)
(0.74933 -0.0141467 1.46492e-22)
(0.658066 0.00193889 2.29579e-22)
(0.823367 -0.0166892 -1.25072e-22)
(0.00604566 0.0463325 1.72562e-20)
(0.546871 0.0168092 6.97388e-23)
(0.804949 -0.0107293 -3.21053e-22)
(0.619066 0.0142172 1.78446e-22)
(0.638549 0.0108578 4.23287e-22)
(0.853304 -0.0172215 1.14787e-22)
(0.168605 -0.0281284 -1.5156e-20)
(0.677638 0.0446564 2.3395e-22)
(0.58824 0.0536217 -4.79027e-22)
(0.744666 0.0356872 1.39052e-22)
(0.760971 0.0154328 2.87163e-22)
(0.821203 0.0126369 -3.34425e-22)
(0.811673 0.0177665 1.37582e-23)
(0.775736 -0.0154804 -5.23423e-23)
(0.378603 -0.0941565 -5.56766e-21)
(0.738488 -0.0680687 8.22086e-21)
(0.281178 -0.0230437 -1.91857e-21)
(0.822083 -0.0330654 1.19529e-22)
(0.687282 0.00371426 2.04206e-22)
(0.511935 -0.0120784 1.44799e-22)
(-0.0434703 0.105088 8.76624e-21)
(0.649167 0.0452486 -3.99148e-22)
(0.978105 0.0307865 -2.47124e-22)
(0.974283 0.0471052 3.58894e-22)
(0.997292 0.0127963 4.85737e-24)
(0.992158 0.0164145 -2.87635e-23)
(0.9767 -0.0553622 -2.33483e-21)
(0.988417 -0.0196896 7.3601e-23)
(0.988791 0.01931 2.15787e-25)
(1.0051 0.0100253 1.80318e-23)
(0.981803 -0.0268779 7.88248e-23)
(1.00111 0.0115199 -3.55158e-23)
(0.993247 -0.0149991 -5.40801e-23)
(0.9989 0.0121577 2.51019e-23)
(0.999885 0.00958819 1.45943e-22)
(1.00741 0.00927813 -2.18748e-24)
(0.985427 0.0206083 -2.95753e-23)
(0.978857 -0.0302921 8.89907e-23)
(0.992404 -0.0168399 -3.92039e-23)
(0.990573 0.0179402 -3.57353e-23)
(0.98196 -0.0668147 1.69927e-21)
(0.667144 0.00940152 1.5127e-22)
(0.632488 -0.00769807 1.20873e-22)
(0.113339 0.00621101 -2.5424e-20)
(0.185906 -0.0135131 -1.05625e-20)
(1.00631 -0.00803511 1.42204e-22)
(0.951285 0.00821127 5.05575e-23)
(0.730149 0.0125381 -9.05373e-22)
(0.682943 -0.0733852 1.10318e-21)
(0.350327 -0.000534943 1.75815e-22)
(0.572992 0.0553076 -3.25576e-22)
(0.393921 -0.00125896 -3.63867e-22)
(0.705839 0.0251532 -2.83706e-23)
(0.980623 0.0269221 -4.58694e-22)
(0.977953 0.0293787 -4.30589e-23)