/*--------------------------------*- C++ -*----------------------------------*\
  =========                 |
  \\      /  F ield         | OpenFOAM: The Open Source CFD Toolbox
   \\    /   O peration     | Website:  https://openfoam.org
    \\  /    A nd           | Version:  10
     \\/     M anipulation  |
\*---------------------------------------------------------------------------*/
FoamFile
{
    format      ascii;
    class       volScalarField;
    location    "100";
    object      epsilon;
}
// * * * * * * * * * * * * * * * * * * * * * * * * * * * * * * * * * * * * * //

dimensions      [0 2 -3 0 0 0 0];

internalField   nonuniform List<scalar> 
10435
(
1.28221e-07
7.67073e-08
1.19424e-08
1.03958e-07
4.11757e-07
8.39859e-07
1.47588e-08
2.36404e-07
9.88569e-06
3.35366e-07
6.85455e-08
5.78905e-07
1.65747e-07
2.18427e-05
3.26621e-06
4.50908e-08
6.66958e-05
1.79085e-06
1.28183e-05
9.87936e-08
7.96826e-08
9.9129e-08
2.72043e-08
2.87071e-06
1.24487e-07
2.53113e-05
1.66185e-05
1.07283e-08
3.11493e-05
6.88935e-07
7.5547e-08
7.90093e-08
8.03736e-07
0.000133303
7.8643e-07
1.11429e-07
2.34234e-07
6.63388e-05
8.71044e-06
3.98147e-06
5.90146e-07
1.65287e-08
0.000125359
7.89708e-08
7.37748e-08
2.82338e-06
5.81979e-07
0.000162516
1.73669e-05
8.87129e-08
2.08969e-07
4.85365e-07
6.64604e-06
1.64303e-05
1.42735e-05
1.46006e-05
7.42908e-07
0.000139433
0.000178579
2.05329e-06
9.48175e-06
9.23753e-08
0.000165271
5.84984e-07
3.99505e-08
1.91186e-08
0.000247422
0.000357345
9.13252e-08
2.68641e-06
1.80361e-05
1.66917e-05
4.26212e-05
2.00192e-08
5.27303e-07
4.58364e-05
1.96703e-06
2.20588e-08
2.17956e-06
2.87816e-07
2.94948e-07
1.5557e-07
5.38968e-06
1.50234e-05
5.5417e-07
1.20865e-07
1.33853e-07
7.93452e-08
1.44896e-07
1.17498e-07
8.50038e-08
1.05041e-07
1.17742e-07
1.33626e-07
9.86563e-08
1.07049e-07
1.44915e-07
9.44091e-07
9.70743e-05
2.29802e-07
2.84279e-07
4.89415e-07
1.38417e-07
8.47806e-08
7.03256e-07
8.46195e-08
8.41598e-08
1.54031e-07
9.47815e-07
1.92639e-07
6.26058e-08
3.50267e-07
1.79967e-07
1.84863e-07
1.50117e-07
7.73165e-08
3.35711e-07
1.21255e-07
7.50197e-08
3.11654e-07
4.17921e-07
2.61111e-05
1.10626e-07
2.69732e-07
8.58366e-08
1.72065e-05
2.18889e-07
1.1038e-05
3.98674e-07
1.49581e-05
1.59229e-06
6.37717e-08
1.01157e-07
1.03037e-06
2.21987e-05
2.43784e-06
8.91051e-08
1.46381e-07
8.09335e-08
7.1808e-08
7.93698e-08
4.60541e-08
0.000272752
3.84761e-07
1.51382e-07
8.34301e-06
1.00473e-07
7.75925e-07
7.77981e-05
3.98345e-07
9.29553e-05
1.71607e-07
1.26037e-07
2.6459e-07
4.69115e-07
2.33735e-05
1.35548e-07
9.44395e-08
3.50576e-07
5.95918e-08
1.38449e-07
7.47018e-06
9.36996e-08
6.6736e-07
2.13074e-07
5.02975e-07
1.99572e-06
3.40281e-07
9.3595e-07
5.39567e-07
1.64094e-07
2.72271e-05
1.12933e-05
1.58687e-06
4.68093e-07
7.3542e-08
1.07051e-07
0.000216201
5.63265e-08
0.00010363
6.8125e-08
1.04674e-06
5.53831e-07
1.10297e-05
8.07333e-08
0.000100236
5.58028e-05
3.22261e-08
5.41406e-07
3.94613e-07
4.78298e-07
4.41126e-06
1.46768e-05
9.91348e-08
2.26621e-07
5.09086e-08
7.69056e-05
1.17615e-07
0.000210865
8.59966e-08
1.74748e-07
9.92928e-05
3.34299e-08
0.000157034
1.67844e-08
1.6023e-07
7.88719e-08
2.23854e-07
0.000239105
2.55499e-07
4.88901e-05
2.01811e-08
5.38231e-07
8.16081e-07
2.74528e-05
3.457e-05
1.79371e-07
6.43126e-06
3.34516e-05
4.14406e-05
5.78862e-05
0.000185687
0.000351213
7.62513e-07
1.54729e-05
2.50977e-07
3.31591e-05
1.42903e-07
1.84363e-07
2.12755e-05
0.000304659
7.28475e-07
3.74723e-05
3.23646e-07
2.04144e-05
0.000120519
1.23034e-06
1.86736e-05
1.4127e-06
8.28498e-08
8.55706e-08
1.35732e-05
9.95549e-06
1.54728e-05
1.16974e-07
5.31382e-06
1.09331e-07
6.07071e-08
7.69087e-06
9.27353e-08
1.6157e-05
1.56351e-07
3.97185e-07
4.35574e-07
3.87164e-08
5.68918e-07
1.09682e-05
2.83947e-08
1.94912e-05
0.000132854
1.98392e-08
1.94881e-07
1.8567e-05
1.33657e-06
1.76168e-07
0.000253638
1.0224e-07
3.36842e-08
6.33229e-06
2.50969e-07
1.33655e-08
1.27426e-07
5.35126e-08
7.51912e-08
2.74805e-05
3.99464e-07
2.55228e-05
2.54698e-07
4.20533e-08
3.02144e-07
2.22079e-07
0.000134029
8.62399e-09
3.70813e-07
1.58627e-07
4.111e-06
6.70446e-07
2.04527e-05
1.52606e-05
0.000117169
1.61808e-07
5.61689e-08
0.000263316
7.85097e-08
1.19294e-05
2.2787e-05
3.40202e-05
1.59312e-07
1.53449e-07
5.14773e-08
0.00029972
1.25468e-06
5.92746e-09
7.81575e-06
1.03095e-07
6.74106e-06
0.000123444
5.06877e-07
3.42777e-08
1.7998e-05
6.37728e-08
4.01884e-05
1.03719e-07
7.77126e-07
4.40015e-06
1.99941e-05
9.4828e-06
1.96826e-07
0.00037198
4.81197e-07
9.65729e-07
7.90447e-05
1.4899e-07
3.43909e-06
9.123e-07
6.43253e-08
2.35857e-05
5.42147e-09
0.00033336
5.13494e-05
3.49141e-06
0.000236707
2.31885e-05
9.34542e-09
2.71788e-07
0.000256576
1.43359e-05
9.24556e-06
9.80092e-05
1.1442e-05
2.13488e-05
1.98668e-05
7.44038e-06
8.87283e-06
8.21622e-06
5.29409e-05
0.000339489
1.31983e-05
2.73839e-06
3.8878e-06
4.37418e-05
5.2622e-08
1.05551e-05
7.78232e-09
2.70175e-06
1.70324e-05
1.56154e-07
2.48596e-08
1.57691e-05
4.05462e-05
1.17515e-05
2.54558e-05
1.16519e-05
4.84563e-06
3.11678e-05
1.74813e-05
0.000282079
6.84083e-07
1.50951e-05
9.17121e-06
2.20098e-05
1.39763e-05
4.01373e-07
2.41212e-05
4.77104e-06
1.02756e-05
8.39859e-05
1.47606e-05
2.49778e-05
2.26888e-05
1.13351e-05
1.43941e-05
7.18097e-07
0.00037334
1.04191e-07
6.13996e-06
1.65339e-08
4.66191e-08
1.07678e-05
6.3861e-09
1.93324e-06
3.95372e-06
4.90285e-05
2.3162e-05
1.55907e-05
6.56117e-09
1.7358e-05
7.85605e-07
1.18973e-05
0.000107141
1.30971e-05
0.000272049
1.01706e-05
2.63854e-08
3.31964e-05
2.45735e-07
6.74034e-07
2.1548e-05
1.95441e-05
1.3918e-05
2.89183e-05
1.41913e-05
1.70734e-05
1.37988e-05
1.32768e-05
0.000237111
2.83896e-05
8.75537e-09
1.78105e-05
1.70522e-05
3.36394e-05
0.000202591
3.40774e-06
9.76237e-06
3.48883e-06
3.4636e-05
5.27613e-05
1.63287e-07
9.60644e-08
3.13569e-08
1.09799e-08
5.9871e-09
5.19834e-09
6.08002e-09
8.2705e-09
9.9497e-09
1.05427e-07
5.61395e-08
2.43946e-08
1.19967e-08
7.67976e-09
6.58783e-09
7.54361e-09
1.04907e-08
1.3447e-08
5.93895e-08
3.43602e-08
1.98205e-08
1.31587e-08
9.97648e-09
8.90055e-09
9.86173e-09
1.34135e-08
1.84271e-08
3.2341e-08
2.43853e-08
1.92812e-08
1.69468e-08
1.47698e-08
1.331e-08
1.33517e-08
1.57327e-08
1.98272e-08
2.13221e-08
2.19374e-08
2.26435e-08
2.46838e-08
2.32894e-08
2.0443e-08
1.79354e-08
1.70018e-08
1.68181e-08
1.91e-08
2.28746e-08
2.74579e-08
3.39757e-08
3.31115e-08
2.80999e-08
2.20985e-08
1.74525e-08
1.36887e-08
1.98001e-08
2.27335e-08
2.83939e-08
3.71235e-08
3.68565e-08
3.06629e-08
2.26097e-08
1.60687e-08
1.11576e-08
2.08467e-08
2.00137e-08
2.34009e-08
3.00979e-08
3.00929e-08
2.46633e-08
1.74679e-08
1.17253e-08
7.75547e-09
2.17573e-08
1.64739e-08
1.64776e-08
1.92596e-08
1.87778e-08
1.50273e-08
1.03408e-08
6.73486e-09
4.36919e-09
2.16558e-08
1.34416e-08
1.10706e-08
1.11753e-08
1.0374e-08
8.17499e-09
5.66061e-09
3.74714e-09
2.46786e-09
2.00383e-08
1.13228e-08
7.712e-09
6.77262e-09
6.01799e-09
4.82026e-09
3.52838e-09
2.50144e-09
1.74205e-09
1.77081e-08
9.9824e-09
6.19202e-09
4.80434e-09
4.13565e-09
3.45185e-09
2.74688e-09
2.13816e-09
1.60536e-09
1.6458e-08
1.03998e-08
6.23811e-09
4.30269e-09
3.55475e-09
3.06705e-09
2.62954e-09
2.22874e-09
1.79386e-09
1.95098e-08
1.4603e-08
8.50715e-09
5.13034e-09
3.88745e-09
3.3064e-09
2.93029e-09
2.62432e-09
2.22836e-09
3.59534e-08
2.75197e-08
1.55552e-08
8.30168e-09
5.47762e-09
4.27085e-09
3.67195e-09
3.32518e-09
2.89551e-09
8.20323e-08
5.64311e-08
3.25163e-08
1.71095e-08
1.00142e-08
6.74573e-09
5.23715e-09
4.5589e-09
4.01715e-09
1.80909e-07
1.11821e-07
6.80484e-08
3.97278e-08
2.3024e-08
1.34095e-08
8.86336e-09
7.00344e-09
6.11694e-09
3.74552e-07
2.16554e-07
1.40121e-07
9.38325e-08
6.01419e-08
3.28261e-08
1.82148e-08
1.23395e-08
1.02203e-08
7.25155e-07
4.13448e-07
2.85582e-07
2.14854e-07
1.55545e-07
8.88864e-08
4.4052e-08
2.47837e-08
1.81445e-08
1.27949e-06
7.60954e-07
5.62363e-07
4.62557e-07
3.62121e-07
2.28224e-07
1.14441e-07
5.59628e-08
3.43027e-08
2.0186e-06
1.30649e-06
1.02585e-06
9.05438e-07
7.30689e-07
4.98751e-07
2.78871e-07
1.36281e-07
7.18307e-08
2.62129e-06
1.98461e-06
1.65834e-06
1.55003e-06
1.25772e-06
9.02175e-07
5.68745e-07
3.17904e-07
1.69955e-07
3.09345e-06
2.73093e-06
2.41559e-06
2.32572e-06
1.88563e-06
1.39606e-06
9.57268e-07
6.18816e-07
3.80369e-07
4.36432e-06
3.80898e-06
3.43018e-06
3.16512e-06
2.58012e-06
1.95724e-06
1.41638e-06
1.00881e-06
7.17588e-07
7.22543e-06
5.57934e-06
4.67954e-06
4.09309e-06
3.36789e-06
2.60064e-06
1.96381e-06
1.54466e-06
1.34539e-06
1.12065e-06
5.93463e-07
3.20315e-07
1.80909e-07
1.11323e-07
7.52343e-08
5.48489e-08
5.40886e-08
7.99243e-08
1.40432e-07
2.30663e-07
3.48196e-07
4.84444e-07
6.33974e-07
6.82691e-07
6.15964e-07
5.74402e-07
3.84187e-07
1.21429e-07
6.20729e-08
1.35414e-08
4.40479e-09
1.91084e-11
4.2114e-12
2.62276e-10
4.10905e-09
1.17427e-08
1.84657e-08
1.58646e-08
9.36776e-09
5.73249e-09
3.43058e-09
1.86587e-09
1.46303e-09
1.75565e-09
2.00446e-09
2.45485e-09
3.08436e-09
3.88386e-09
4.79058e-09
5.76173e-09
7.67397e-09
1.35298e-08
3.47601e-08
1.03402e-07
1.97548e-07
1.47474e-07
5.78169e-08
2.01219e-08
8.40247e-09
4.96496e-09
4.72365e-09
8.46024e-09
2.64799e-08
6.95542e-08
1.06439e-07
1.16885e-07
1.19089e-07
1.29325e-07
1.83375e-06
1.10456e-06
7.21063e-07
5.32325e-07
4.73494e-07
4.64699e-07
4.01093e-07
3.02371e-07
2.46585e-07
2.61425e-07
3.54973e-07
5.14069e-07
7.39078e-07
1.05837e-06
1.2897e-06
1.23217e-06
6.43698e-07
3.69694e-07
1.8554e-07
1.13013e-07
6.83783e-08
1.72156e-08
1.11104e-09
1.69112e-10
3.36832e-10
7.85747e-09
3.19348e-08
5.78526e-08
7.83454e-08
7.1903e-08
5.16022e-08
2.81317e-08
1.31521e-08
9.39801e-09
8.92331e-09
6.59534e-09
5.79929e-09
5.50343e-09
5.77911e-09
7.14564e-09
1.11654e-08
2.3642e-08
6.25199e-08
1.49081e-07
2.11851e-07
1.53417e-07
6.36543e-08
2.2314e-08
9.5538e-09
6.07195e-09
6.89913e-09
1.6803e-08
7.62023e-08
3.40216e-07
9.2172e-07
1.22611e-06
5.9542e-07
2.39432e-07
1.47949e-07
1.10763e-06
6.52988e-07
4.31957e-07
2.89267e-07
2.09456e-07
1.90208e-07
2.11858e-07
2.49639e-07
2.92393e-07
3.42473e-07
4.06644e-07
4.22242e-07
4.16563e-07
4.54568e-07
6.06812e-07
7.74412e-07
4.13394e-07
2.54086e-07
1.30014e-07
8.58953e-08
5.45629e-08
2.61689e-08
1.88264e-08
3.94325e-09
2.23285e-09
8.52888e-09
1.52661e-08
2.3897e-08
3.55449e-08
6.24666e-08
8.12118e-08
8.68489e-08
6.47971e-08
3.01714e-08
1.25695e-08
7.13588e-09
4.85163e-09
3.83608e-09
3.83532e-09
5.76717e-09
1.44172e-08
5.32083e-08
1.37527e-07
1.42213e-07
8.99592e-08
4.02827e-08
1.57539e-08
7.21743e-09
4.64525e-09
4.65774e-09
8.13924e-09
2.53503e-08
1.13047e-07
4.10047e-07
6.99241e-07
4.51541e-07
1.34018e-07
4.68653e-08
3.151e-08
5.40344e-07
2.91039e-07
2.10397e-07
2.09452e-07
2.48613e-07
3.04088e-07
3.51492e-07
3.82344e-07
4.12015e-07
4.29041e-07
3.96086e-07
3.12129e-07
2.21105e-07
1.78534e-07
1.83271e-07
2.29766e-07
1.91275e-07
1.28327e-07
7.66903e-08
5.55331e-08
4.22868e-08
4.29148e-08
3.79684e-08
1.01872e-08
2.65704e-09
7.44305e-09
1.16644e-08
1.36138e-08
2.24443e-08
5.3948e-08
8.2416e-08
2.08302e-08
8.82482e-09
4.88776e-09
2.99552e-09
2.0094e-09
1.49112e-09
1.41377e-09
1.96503e-09
4.42831e-09
1.50847e-08
5.23678e-08
9.66636e-08
7.64013e-08
4.13381e-08
2.03031e-08
1.07515e-08
6.82551e-09
5.55176e-09
6.23861e-09
1.03015e-08
2.38857e-08
5.97763e-08
1.11203e-07
1.16234e-07
5.04325e-08
1.56264e-08
7.72746e-09
7.09142e-09
2.6951e-07
1.56023e-07
1.10371e-07
8.71556e-08
7.78401e-08
8.11371e-08
9.18922e-08
1.0163e-07
1.07232e-07
1.09963e-07
1.04496e-07
8.27443e-08
6.49782e-08
6.18471e-08
7.10338e-08
8.9888e-08
9.02031e-08
7.76454e-08
7.13643e-08
5.82643e-08
4.10584e-08
3.17227e-08
3.18336e-08
8.79728e-09
4.78181e-09
9.96323e-09
1.45449e-08
9.77046e-09
1.20393e-08
1.14064e-08
8.76088e-09
4.69233e-09
2.90884e-09
2.05706e-09
1.57717e-09
1.33002e-09
1.36754e-09
2.02547e-09
4.19966e-09
1.11847e-08
2.96502e-08
5.17138e-08
5.15873e-08
3.79584e-08
2.68784e-08
2.10024e-08
1.82335e-08
1.70235e-08
1.67583e-08
1.78706e-08
2.3096e-08
3.51918e-08
5.27352e-08
6.16059e-08
3.8696e-08
1.26475e-08
4.7394e-09
3.11152e-09
3.36323e-09
1.01519e-07
5.1787e-08
3.80041e-08
3.70531e-08
3.84638e-08
3.88566e-08
3.92061e-08
3.99346e-08
4.1008e-08
4.27745e-08
4.25032e-08
3.28906e-08
2.45357e-08
2.31029e-08
2.79674e-08
3.63037e-08
3.97189e-08
4.94272e-08
6.23055e-08
8.45547e-08
6.01734e-08
4.87707e-08
3.11628e-08
1.09425e-08
2.65764e-09
4.22556e-09
3.50093e-09
1.77854e-09
1.58095e-09
1.3219e-09
1.58835e-09
1.80042e-09
1.53322e-09
1.37127e-09
1.63984e-09
2.59122e-09
4.86634e-09
9.72168e-09
2.03228e-08
3.92843e-08
5.36076e-08
4.48377e-08
2.58542e-08
1.50744e-08
1.09608e-08
9.90112e-09
1.03585e-08
1.15445e-08
1.31918e-08
1.6729e-08
2.31639e-08
3.14549e-08
3.85549e-08
3.94091e-08
2.796e-08
1.20663e-08
5.15897e-09
3.35763e-09
3.38586e-09
5.72329e-08
3.1534e-08
2.13457e-08
1.77471e-08
1.71829e-08
1.8247e-08
2.04621e-08
2.37454e-08
2.72345e-08
3.0023e-08
3.16495e-08
3.22221e-08
3.33254e-08
3.77086e-08
4.41445e-08
1.96987e-08
8.76577e-09
6.94444e-09
8.4995e-09
9.91182e-09
1.03628e-08
1.66292e-08
2.17118e-08
4.68191e-09
6.53014e-09
5.4606e-10
2.92508e-10
2.14574e-10
2.05339e-10
2.27709e-10
4.04839e-10
8.69706e-10
1.17833e-09
1.1022e-09
1.50789e-09
2.96337e-09
6.31527e-09
1.10565e-08
1.73778e-08
2.69451e-08
3.29333e-08
2.32918e-08
1.13043e-08
5.88764e-09
4.06551e-09
3.59411e-09
3.81349e-09
4.7656e-09
7.13418e-09
1.27583e-08
2.41387e-08
3.9678e-08
5.04818e-08
4.79205e-08
3.07479e-08
1.25591e-08
5.33128e-09
3.64534e-09
3.85337e-09
3.84151e-08
2.3796e-08
1.94628e-08
2.01453e-08
2.29666e-08
2.71694e-08
3.30309e-08
4.11219e-08
5.1159e-08
6.04588e-08
6.51993e-08
6.30399e-08
6.04614e-08
6.3709e-08
6.99928e-08
3.84513e-08
1.38088e-08
8.4051e-09
3.84384e-09
2.5835e-09
1.77728e-09
2.00051e-09
8.74328e-10
2.79565e-09
1.35568e-09
1.03878e-09
2.43907e-10
8.2921e-11
7.32454e-11
1.27257e-10
3.95361e-10
1.22469e-09
1.769e-09
2.48178e-09
3.14009e-09
3.89669e-09
5.48114e-09
7.60721e-09
1.02548e-08
1.37142e-08
1.38987e-08
8.37661e-09
4.02471e-09
2.22968e-09
1.66018e-09
1.66238e-09
2.24883e-09
4.13963e-09
9.68812e-09
2.42539e-08
5.13394e-08
7.77576e-08
8.29761e-08
6.14017e-08
2.82402e-08
9.86922e-09
4.73962e-09
3.94349e-09
4.72064e-09
4.44995e-08
3.27025e-08
2.56771e-08
1.98111e-08
1.50982e-08
1.24502e-08
1.20654e-08
1.41385e-08
1.95173e-08
3.07835e-08
4.95635e-08
6.56837e-08
6.17414e-08
5.37293e-08
4.74079e-08
1.07034e-08
4.28105e-09
3.98963e-09
2.53563e-09
1.10652e-09
7.02111e-10
3.08333e-10
9.81794e-11
4.60312e-11
7.446e-11
8.20607e-11
9.4437e-11
7.13075e-11
8.76956e-11
2.17586e-10
8.44818e-10
1.57294e-09
3.30248e-09
7.09436e-09
7.76087e-09
5.00217e-09
3.58828e-09
3.74684e-09
4.32214e-09
5.64051e-09
6.11357e-09
4.56998e-09
2.59192e-09
1.47851e-09
1.12599e-09
1.31911e-09
2.40804e-09
5.447e-09
1.13039e-08
1.93952e-08
2.76802e-08
3.25992e-08
3.28302e-08
2.79014e-08
1.76489e-08
8.72965e-09
4.90875e-09
4.46842e-09
5.54535e-09
2.48402e-05
2.38375e-05
2.26733e-05
2.29807e-05
2.52896e-05
2.6944e-05
2.46298e-05
1.93864e-05
1.39369e-05
1.00053e-05
8.1459e-06
8.56114e-06
1.09776e-05
1.23021e-05
1.20575e-05
1.18043e-05
1.13787e-05
1.0762e-05
9.99105e-06
9.00623e-06
7.62827e-06
5.88266e-06
4.51897e-06
3.91597e-06
3.28317e-06
2.02624e-05
2.20055e-05
2.31059e-05
2.40054e-05
2.44144e-05
2.31037e-05
1.96162e-05
1.52542e-05
1.15101e-05
9.03562e-06
7.98647e-06
8.13949e-06
8.67901e-06
8.58213e-06
8.04026e-06
7.74697e-06
7.9499e-06
8.82202e-06
1.02808e-05
1.1898e-05
1.23752e-05
1.05999e-05
8.02586e-06
6.1737e-06
4.43992e-06
1.814e-05
2.04513e-05
2.20043e-05
2.24339e-05
2.15258e-05
1.90422e-05
1.53643e-05
1.15292e-05
8.43099e-06
6.38168e-06
5.34202e-06
5.04455e-06
5.06082e-06
5.03655e-06
5.01024e-06
5.25262e-06
5.9994e-06
7.36766e-06
9.16905e-06
1.08265e-05
1.13074e-05
9.80608e-06
7.24173e-06
5.07439e-06
3.18638e-06
1.49922e-05
1.59801e-05
1.69915e-05
1.7123e-05
1.61431e-05
1.39563e-05
1.09165e-05
7.83177e-06
5.39011e-06
3.84544e-06
3.10781e-06
2.89793e-06
2.93581e-06
3.00659e-06
3.08555e-06
3.3063e-06
3.84881e-06
4.80828e-06
6.04354e-06
7.11871e-06
7.43717e-06
6.52389e-06
4.78556e-06
3.14926e-06
1.78419e-06
1.22843e-05
1.16992e-05
1.16997e-05
1.14544e-05
1.06038e-05
9.03956e-06
6.94372e-06
4.85233e-06
3.26656e-06
2.35018e-06
1.95934e-06
1.85068e-06
1.84383e-06
1.83531e-06
1.80558e-06
1.83007e-06
2.02277e-06
2.44253e-06
3.01901e-06
3.54394e-06
3.76826e-06
3.44519e-06
2.61765e-06
1.69489e-06
8.90903e-07
1.09729e-05
8.48646e-06
7.54823e-06
6.93029e-06
6.15931e-06
5.07521e-06
3.79878e-06
2.64647e-06
1.84634e-06
1.41677e-06
1.23676e-06
1.17074e-06
1.13485e-06
1.08592e-06
1.01228e-06
9.53606e-07
9.79726e-07
1.12984e-06
1.37774e-06
1.63407e-06
1.78495e-06
1.69417e-06
1.31127e-06
8.21761e-07
3.94403e-07
1.23266e-05
7.08754e-06
5.04012e-06
4.02635e-06
3.27691e-06
2.55579e-06
1.88886e-06
1.35712e-06
1e-06
8.12103e-07
7.32084e-07
6.90305e-07
6.51294e-07
6.01728e-07
5.37337e-07
4.76048e-07
4.56678e-07
5.0258e-07
6.04293e-07
7.21661e-07
7.97262e-07
7.63309e-07
5.92921e-07
3.74378e-07
1.91246e-07
2.05801e-05
8.09794e-06
3.96918e-06
2.44971e-06
1.73785e-06
1.29864e-06
9.73209e-07
7.20902e-07
5.42887e-07
4.53415e-07
4.18141e-07
3.91464e-07
3.5742e-07
3.15835e-07
2.69974e-07
2.26661e-07
2.03591e-07
2.13461e-07
2.53692e-07
3.05724e-07
3.4253e-07
3.35665e-07
2.73846e-07
1.88769e-07
1.12887e-07
3.9683e-05
1.16995e-05
3.55908e-06
1.55493e-06
9.92015e-07
7.41577e-07
5.60495e-07
4.13319e-07
3.02703e-07
2.52983e-07
2.3716e-07
2.19125e-07
1.93668e-07
1.61535e-07
1.30946e-07
1.03935e-07
8.64346e-08
8.51892e-08
9.98351e-08
1.22801e-07
1.42824e-07
1.50189e-07
1.3645e-07
1.10117e-07
9.10568e-08
1.54907e-06
8.59067e-07
2.97032e-07
2.79633e-07
1.33577e-09
2.24342e-09
1.11046e-06
7.92096e-09
2.79929e-07
1.33196e-08
0.000633798
2.33971e-10
7.79509e-06
1.88967e-08
5.27788e-06
9.89101e-09
0.000895194
2.35752e-07
3.3783e-09
1.91474e-06
8.23175e-07
6.29288e-14
5.46036e-06
5.57421e-09
1.54589e-08
3.72206e-12
1.09773e-08
4.53872e-07
5.05016e-06
3.88229e-05
1.48868e-08
1.96736e-11
2.47513e-07
1.68693e-06
1.98698e-05
3.20417e-09
4.95707e-07
3.62466e-06
7.43378e-07
4.91542e-09
5.20199e-05
3.45508e-13
4.76378e-14
6.14646e-07
2.81752e-07
7.31083e-10
0.00461534
0.00311724
8.62819e-07
3.16255e-06
0.00524698
9.03055e-05
8.4121e-07
3.40796e-07
1.18591e-06
2.51966e-07
2.65676e-08
7.8402e-07
8.33602e-09
9.70978e-05
1.79135e-08
3.16001e-07
1.41956e-09
5.45884e-11
6.8912e-09
4.55489e-05
1.95522e-08
1.46531e-08
1.02446e-05
3.5683e-05
3.02714e-07
4.46664e-12
1.74863e-09
5.10335e-06
7.33178e-09
6.43289e-07
1.64335e-05
0.000298107
1.99212e-06
2.44478e-07
1.33451e-06
3.99917e-08
1.18303e-10
13.2281
1.1439e-09
8.87775e-09
1.68925e-09
0.000271421
3.51135e-07
2.33423e-08
7.00548e-08
1.78387e-09
1.15477e-08
4.14693e-10
7.407e-10
0.000439736
5.29177e-13
0.00534845
1.80239e-13
0.000117185
2.36073e-09
4.54318e-05
2.2558e-09
1.04184e-10
3.61792e-09
8.58337e-08
7.43178e-06
1.15701e-06
2.96506e-11
5.37667e-05
6.16406e-14
7.57862e-11
1.74987e-05
7.52329e-11
7.09263e-07
1.24807e-06
9.35173e-05
6.50675e-09
8.62533e-07
7.12207e-11
5.25236e-13
1.33681e-10
3.4725e-09
8.62261e-09
3.75674e-07
4.76164e-14
9.02093e-05
2.43063e-06
3.52778e-10
0.00404216
1.9786e-10
5.19228e-06
3.52393e-05
2.70821e-06
4.29795e-08
1.87287e-09
2.35205e-07
2.24119e-09
7.82363e-09
0.00910307
7.96787e-10
3.34384e-07
0.000253919
4.16858e-13
3.68414e-06
2.86187e-09
8.86319e-08
3.46481e-06
8.46437e-09
2.52707e-05
4.00694e-08
2.97548e-08
1.73126e-07
1.10001e-05
4.30985e-09
7.96297
7.68912e-09
3.51749e-09
0.000236116
4.45918e-09
1.73143e-12
3.14799e-07
3.56517e-09
0.00367126
2.34088e-08
8.33967
2.08317e-08
9.79949e-09
1.52893e-10
5.57183e-09
1.40531e-08
9.9332e-11
2.17316e-08
11.2531
7.09515e-10
1.21447e-08
7.4649e-06
7.97706e-06
7.28612e-06
8.82737e-10
2.24386e-05
2.23104e-11
8.39583e-07
2.44962e-05
8.77499e-05
1.09894e-10
4.85159
9.80025e-12
3.63774e-06
2.019e-08
0.000354766
0.000251355
5.60496e-08
2.412e-07
1.37174e-05
3.21357e-06
5.93982e-09
1.70366e-12
2.37601e-06
5.25663e-06
1.343e-05
2.4568e-11
2.34103e-08
2.12282e-08
4.37135e-08
2.27348e-08
2.20411e-08
2.13849e-09
5.54928e-06
3.61566e-09
7.53706e-09
2.29112e-10
1.43797e-05
3.65188e-08
3.28979e-08
2.64699e-05
4.27837e-10
1.10142e-09
6.9851e-10
3.20239e-08
7.69968e-08
2.84689e-13
5.46035e-09
2.48326e-07
6.19044e-07
0.000107218
1.34362e-07
0.000941095
2.27365e-11
9.80787e-10
10.2281
2.51373e-09
2.83271e-11
1.29462e-10
6.27587e-07
2.83031e-09
0.000142297
1.93699e-07
2.5028e-05
1.73677e-05
2.08063e-09
1.44014e-08
1.46169e-08
9.91852e-07
1.94328e-09
7.31882e-10
6.29235e-14
1.84542e-06
1.62576e-08
4.6665e-10
1.34015e-11
3.04173e-08
2.13935e-08
2.916e-06
9.09918e-14
3.37639e-08
2.06161e-05
2.1351e-05
0.000164113
3.05013e-09
3.31822e-08
4.18698e-10
1.89655e-08
4.71547e-09
6.03184e-06
4.42865e-09
7.87853e-09
7.96503e-08
7.18627e-07
5.05301e-09
2.74751e-06
5.8862e-08
1.53978e-13
9.96621e-10
1.32641e-08
5.85846e-08
3.51771e-08
3.70856e-06
1.57868e-08
0.000436702
0.000147062
4.32955e-08
1.3765e-08
3.46286e-10
9.32752e-06
7.40563e-09
7.15564e-08
2.92702e-08
3.0936e-05
0.000652078
1.37362e-05
1.03924e-09
4.23729e-13
8.32134e-05
4.04218e-06
1.97186e-05
5.36426e-06
9.6057e-10
6.64378e-09
8.37459e-05
0.000373253
1.69182e-11
3.61561e-10
4.43889e-09
2.41556e-06
2.11739e-08
5.8121e-07
1.16568e-09
0.00138042
4.086e-08
1.86776e-11
6.69811e-08
3.84321e-06
8.05287e-10
1.67255e-13
2.21433e-07
0.00248608
2.303e-08
1.38755e-08
1.75929e-06
0.000200091
3.19935e-11
6.76855e-10
1.32022e-08
1.48653e-09
4.24171e-09
7.63049e-05
1.25693e-06
8.78104e-10
1.16061e-06
1.31025e-08
1.38807e-05
4.85965e-08
7.08945e-09
0.000212353
7.39132e-09
2.42505e-10
7.34422e-11
4.05892e-13
2.22472e-08
5.32101e-10
1.09582e-09
7.91602e-05
4.25993e-08
5.77429e-06
2.69664e-10
3.36468e-09
2.84154e-13
3.57836e-09
0.575989
4.32991e-08
1.59945e-08
2.58211e-13
0.000197916
5.42944e-05
5.96115e-07
1.67767e-06
2.04574e-07
1.20788e-08
0.418914
1.03302e-05
2.53014e-06
9.38673e-10
0.000101448
3.48013e-13
4.03756e-09
2.67629e-10
0.000689832
2.5607e-09
2.98138e-06
4.046e-08
1.64103e-05
8.16397e-06
1.70569e-06
6.63397e-06
2.45675e-09
3.73225e-10
7.67376e-09
9.31638e-10
3.20532e-09
4.33749e-06
6.44614e-11
2.80236e-07
2.06547e-06
2.53356e-07
1.39317e-06
1.631e-08
2.04569e-06
0.000337053
0.000182844
1.26179e-07
1.59064e-08
1.03108e-07
4.43794e-07
2.20776e-05
2.53389e-08
4.36467e-08
1.59455e-07
3.14768e-09
5.59223e-06
1.38222e-08
4.49796e-14
1.14747e-09
1.22933e-06
2.53639e-09
4.99859e-13
3.00235e-06
1.63134e-07
6.7275e-08
1.9806e-09
3.12092e-06
6.93506e-09
8.32283e-05
4.16392e-09
4.99669e-11
1.5589e-07
6.27649e-07
0.394634
2.53853e-09
3.10417e-09
1.9881e-08
1.90771e-09
5.48071e-08
2.73886e-09
1.1641e-10
0.000951457
5.20214e-13
4.55803e-10
1.23772e-09
3.20373e-11
1.95339e-08
3.51914e-08
1.58379e-08
8.31436e-06
3.75751e-06
2.35452e-10
5.83395e-14
5.15446e-13
2.33854e-12
6.28336e-10
3.14705e-09
1.70494e-05
2.25489e-05
9.6895e-08
9.63607e-06
1.74814e-07
2.64036e-07
7.00205e-08
8.61282e-09
3.131e-07
1.6832e-06
3.98746e-11
4.51982e-09
4.76668e-05
4.89436e-08
3.12494e-05
1.62776
1.54552e-08
5.31227e-08
5.21712e-06
4.44614e-10
4.95479e-05
1.94272e-06
9.12402e-06
0.000508031
1.13255e-08
5.33907e-09
2.95211e-07
2.45148e-09
0.00025384
8.83846e-07
8.69952e-09
3.94745e-06
9.85011e-10
7.6124e-09
2.06774e-06
6.51389e-09
1.57456e-08
4.10498e-06
4.50583e-06
4.13563e-08
1.59654e-06
4.04147e-13
3.23405e-10
10.8755
8.49813e-10
4.05367e-08
6.61053e-15
1.69006e-07
3.26927e-10
2.31304e-05
2.75131e-09
6.07885e-10
7.6307e-07
1.49389e-09
2.81084e-09
2.47292e-05
8.91205e-09
1.84942e-08
3.38587e-06
4.25656e-14
5.30467e-06
9.86433e-09
1.21891e-07
6.33436e-06
2.03307e-06
1.94809e-08
1.97849e-08
2.66099e-06
6.46564e-14
4.03123e-11
1.61382e-06
8.76555e-10
5.0095e-09
7.92122e-11
0.000517806
1.65894e-06
1.28789e-06
1.98774e-09
1.22611e-06
6.31258e-08
0.00103829
2.08539e-06
7.20801e-07
2.04848e-06
1.80204e-09
0.000751589
1.17631e-05
1.97252e-08
2.68492e-13
8.42574e-09
8.44305e-10
6.63635e-08
1.9395e-07
4.45748e-11
1.0387e-07
4.33314e-14
1.38614e-05
2.92871e-06
3.51649e-09
1.29907e-06
8.94634e-05
2.26573e-11
8.88464e-06
2.21883e-13
1.88265e-07
2.22906e-09
4.32685e-08
1.25447e-08
9.20447e-06
8.09233e-07
1.57298e-06
5.00726e-10
5.16925e-06
9.03699e-07
0.00152834
7.93766e-09
5.05978e-08
2.38222e-06
4.45554e-06
1.13563e-09
3.21256e-06
4.51397e-14
3.22886e-06
3.63912e-05
3.34202e-08
2.72012e-07
2.1298e-09
1.62955e-13
1.08837e-07
3.15765e-06
2.60229e-09
4.30569e-06
4.03855e-09
2.78353e-09
2.19355e-05
0.125011
5.52042e-06
6.12666e-08
1.37491e-07
0.224765
7.73698e-07
1.30977e-11
1.38053e-07
1.25961e-09
1.37327e-07
9.78973e-12
2.58519e-09
3.47145e-07
1.15481e-13
2.03766e-08
3.51655e-09
1.24309e-10
9.51842e-05
3.92326e-08
2.19921e-09
1.7968e-06
1.6043e-06
7.23036e-10
5.418e-11
8.83226e-05
3.85318e-07
2.92469e-13
5.77685e-10
2.21647e-06
9.17937e-14
1.62296e-08
1.35649e-08
3.81747e-08
4.05829e-11
2.1309e-14
9.00461e-07
1.29001e-09
1.2602e-10
9.46934e-09
1.54465e-06
8.54087e-09
4.24481e-09
1.81728e-07
1.02352e-11
1.52517e-08
2.16767e-10
1.05133e-08
7.0623e-08
9.80327e-09
8.34981e-05
0.0243168
3.58613e-07
1.25103e-07
2.9306e-08
2.04844e-08
9.95084e-09
4.06366e-13
3.34556e-09
6.67316e-11
2.79121e-06
1.28189e-07
6.06683e-09
1.91278e-08
0.000100552
1.38966e-07
3.45712e-09
2.41475e-05
1.17205e-12
1.73232e-09
1.75072e-10
4.0292e-08
1.0442e-07
9.07687e-05
7.39243e-05
0.000165213
2.51825e-10
2.15441e-08
2.87881e-13
4.72882e-09
9.21231e-09
0.0944126
3.47413e-09
6.96576e-07
1.16068e-10
3.63417e-06
1.07402e-07
0.0053828
5.31401e-13
1.3653e-08
9.68776e-10
4.49117e-06
4.72997e-08
6.37182e-06
7.25731e-07
1.08745e-08
7.22706e-09
1.01066e-09
0.000399077
3.77794e-13
1.1737e-11
2.37466e-06
4.2179e-09
1.83197e-08
6.93939e-09
1.64605e-13
1.33573e-06
1.05104e-09
4.06505e-11
5.8882e-09
4.30455e-09
1.21716e-08
3.92074e-06
9.76434e-06
6.7673e-14
3.76124e-06
1.58804e-09
0.000120641
5.01649e-10
1.05422e-07
4.49416e-10
6.48467e-12
2.93201e-07
6.2773e-09
8.36184e-11
7.55494e-09
1.15808e-08
8.49165e-14
1.46907e-12
1.4485e-10
6.27665e-05
3.43191e-05
3.88761e-08
0.00354943
1.23889e-06
1.37035e-07
1.37804e-05
1.92703e-08
8.0854e-09
1.70625e-08
3.88007e-13
2.20124e-09
9.46454e-05
1.21865e-08
2.52114e-09
3.5164e-06
7.16234e-09
1.7183e-09
4.71379e-06
1.08799e-09
9.62656e-10
1.22324e-08
2.63263e-08
1.62753e-06
6.09468e-06
4.57851e-09
1.15378e-05
2.24425e-08
6.31698e-06
1.10452e-06
1.50323e-05
4.90359e-05
7.33198e-08
8.46809e-10
1.24484e-08
4.32662e-13
1.20915e-08
5.62307e-09
2.179e-05
3.92435e-06
8.75019e-08
0.000272092
8.59813e-08
9.88721e-09
1.42461e-08
5.29635e-09
0.101943
1.88217e-07
2.22652e-10
8.51295e-08
2.64381e-05
1.09999e-06
1.44752e-05
6.33516e-13
4.16362e-10
1.08122e-05
3.59927e-13
3.7276e-06
5.81018e-08
4.98886e-06
6.66821e-05
2.31447e-08
5.6034e-05
2.45291e-11
3.15671e-13
1.17957e-05
1.18715e-08
2.52179e-09
2.91663e-09
4.63182e-14
5.37828e-08
2.01617e-08
1.11016e-10
7.25816e-13
4.81376e-09
9.98081e-08
2.02066e-09
0.000314507
1.79701e-06
4.20382e-11
2.96149e-08
3.00272e-11
0.000974799
2.8034e-09
4.78863e-09
6.79427e-08
4.96469e-06
3.2427e-08
2.89453e-13
3.64636e-10
0.188227
1.91589e-07
1.77631e-05
1.06451e-08
4.72325e-06
7.60586e-06
5.23009e-05
1.7296e-07
3.05386e-06
1.08221e-08
1.45562e-08
4.33897e-06
2.0208e-13
1.313e-08
1.14906e-07
2.18175e-06
2.49009e-07
7.95938e-13
3.30929e-09
3.68264e-06
1.51207e-08
1.80968e-07
3.06059e-06
7.13208e-10
9.84292e-12
3.0738e-06
1.08194e-05
9.41279e-07
1.15132e-08
1.77737e-09
1.55896e-13
5.0924e-06
7.693e-07
2.59057e-10
1.57652e-08
1.33807e-09
1.8132e-05
6.52e-10
1.058e-06
6.49301e-07
3.53281e-09
6.0695e-09
1.8939e-07
4.99933e-09
3.65496e-06
4.41716e-11
3.93211e-06
1.61386e-09
4.76905e-09
1.36154e-05
4.53343e-12
7.16546e-08
1.65473e-08
2.24164e-07
3.78784e-06
0.000266325
4.84975e-10
4.95975e-09
2.41029e-09
4.56195e-06
0.00579955
2.16246e-07
6.70821e-11
8.84836e-06
2.93038e-06
6.62677e-13
3.02437e-09
2.01659e-09
11.3154
2.56857e-09
0.009219
1.42656e-08
5.27358e-13
2.89447e-05
1.4092e-08
5.99093e-07
8.02864e-08
3.29321e-06
0.000425497
0.000101119
0.0659973
6.39013e-09
1.18241e-07
3.35454e-06
9.42788e-09
1.4175e-06
2.00714e-09
4.85378e-09
6.19278e-06
7.83947e-09
2.73249e-08
1.33378e-06
1.74881e-07
1.36437e-08
2.08586e-09
8.82164e-07
9.0601e-09
2.40072e-09
9.85236e-05
9.01659e-06
1.74788e-06
6.74819e-08
1.69666e-07
0.00332712
6.61114e-06
2.56701e-06
3.1349e-06
2.22406e-06
8.67028e-08
1.2339e-10
1.4475e-07
3.60611e-06
2.18885e-08
3.49555e-08
3.53803e-08
2.48127e-06
1.3425e-08
2.35985e-07
8.07135e-07
4.38802e-13
2.06239e-10
1.04831e-07
5.50015e-05
1.03585e-07
6.85881e-06
1.89406e-06
1.48235e-11
3.52737e-07
1.91222e-06
5.9963e-08
4.26082e-06
5.61896e-07
5.88898e-10
1.32226e-08
7.18269e-09
1.4174e-10
5.18716e-06
7.38449e-05
1.98065e-13
5.40098e-05
7.27685e-09
0.000158116
9.08121e-09
5.15312e-09
5.37093e-09
2.62906e-07
5.27616e-06
4.40636e-07
3.52723e-06
6.39062e-14
9.72632e-14
3.08593e-06
1.84354e-09
1.59358e-06
2.1025e-06
7.87555e-07
1.19716e-10
2.05899e-08
1.09829e-05
2.36641e-08
9.94309e-13
1.38271e-08
7.21712e-07
3.65903e-08
1.7459e-09
0.000179545
3.36897e-06
4.12395e-09
9.54675e-08
1.3031e-09
6.38488e-11
3.53752e-09
1.86668e-13
2.13833e-06
4.25612e-11
1.88486e-07
2.26051e-05
5.04307e-06
2.49554e-07
1.12623e-09
3.65356e-08
4.40178e-08
2.37432e-09
3.82318e-06
2.27616e-09
7.46378e-10
1.45822e-05
7.97845e-09
3.77998e-07
6.30922e-08
1.49017e-08
3.81505e-06
3.23364e-09
4.18376e-08
2.51577e-13
1.38394e-07
1.59562e-07
9.05048e-05
8.80379e-09
3.33019e-05
6.5558e-14
3.2973e-08
1.36821e-08
9.0545e-05
2.35453e-05
6.9078e-09
0.000145336
8.72617e-10
0.12731
2.7982e-08
4.00407e-06
1.67152e-08
1.10745e-08
4.24355e-08
2.84417e-07
1.99942e-06
4.31241e-11
1.87261e-07
6.17781e-06
2.45025e-09
9.35879e-09
5.14668e-09
1.42041e-13
2.94374e-09
0.00446223
2.01484e-10
1.10332e-09
4.45262e-05
1.24771e-08
0.0822659
1.18912e-10
1.06484e-07
3.91175e-14
5.78953e-07
6.37294e-11
3.39574e-10
4.26479e-06
9.1318e-07
2.53389e-07
1.00658e-09
8.91603e-08
1.95427e-07
6.9703e-05
6.67701e-09
1.27156e-07
1.16917e-08
1.13964e-10
1.05782e-09
1.9938e-08
0.000843452
4.22393e-07
2.03122e-06
6.1994e-14
7.32913e-06
6.23037e-07
4.74464e-09
5.68668e-06
1.20576e-08
8.15435e-06
2.16079e-06
0.187468
3.44194e-09
8.35202e-09
1.63139e-08
4.88164e-06
3.17293e-12
1.84981e-07
1.18506e-07
2.04757e-07