/*--------------------------------*- C++ -*----------------------------------*\
  =========                 |
  \\      /  F ield         | OpenFOAM: The Open Source CFD Toolbox
   \\    /   O peration     | Website:  https://openfoam.org
    \\  /    A nd           | Version:  10
     \\/     M anipulation  |
\*---------------------------------------------------------------------------*/
FoamFile
{
    format      ascii;
    class       volScalarField;
    location    "100";
    object      k;
}
// * * * * * * * * * * * * * * * * * * * * * * * * * * * * * * * * * * * * * //

dimensions      [0 2 -2 0 0 0 0];

internalField   nonuniform List<scalar> 
10435
(
0.023178
0.0220343
0.0102392
0.0242655
0.0293207
0.0373373
0.0101287
0.0139247
0.0422261
0.026487
0.0219653
0.0295234
0.0129511
0.0238556
0.0151463
0.0127327
0.0450723
0.0388579
0.0462817
0.0224636
0.0129121
0.0214748
0.0125679
0.0394891
0.0189859
0.0851441
0.0246777
0.00864683
0.0411378
0.0317729
0.013923
0.0222277
0.0174995
0.0546815
0.0209734
0.0210018
0.0152396
0.0559717
0.0830387
0.0322802
0.0336295
0.0111265
0.0822998
0.0236717
0.0127167
0.0359525
0.0341578
0.0977452
0.0501902
0.0173325
0.0144722
0.027132
0.0676533
0.0530244
0.0849647
0.0386808
0.0208698
0.0708528
0.0767902
0.0312267
0.0652864
0.0223811
0.0709861
0.0279409
0.0126479
0.0113903
0.0894668
0.136206
0.0124843
0.0401464
0.0573946
0.0524884
0.0435808
0.0122191
0.0149276
0.0436822
0.0367148
0.0105041
0.0214849
0.0139922
0.022011
0.0209099
0.0542574
0.0465878
0.026214
0.0207348
0.0238474
0.0244911
0.0161553
0.0244933
0.0249035
0.0255583
0.0202615
0.019011
0.0244952
0.0186723
0.0263543
0.0140334
0.0519642
0.0281125
0.0147036
0.0260141
0.0219672
0.024404
0.0286443
0.023872
0.0190256
0.0189168
0.0305207
0.0158926
0.016813
0.0249891
0.0202669
0.0183565
0.0260537
0.0211333
0.0297971
0.022824
0.023786
0.0287793
0.0297733
0.0308684
0.0237097
0.0107596
0.0194565
0.0742417
0.0277181
0.018763
0.0306635
0.0388923
0.0106028
0.0188654
0.0134962
0.0131587
0.0476846
0.0191343
0.015338
0.0250869
0.0236993
0.0212088
0.0217121
0.0125809
0.0910553
0.0220971
0.0226644
0.0171613
0.0125889
0.032755
0.0546101
0.0215312
0.0757112
0.0137356
0.0244837
0.0174841
0.0287194
0.0511492
0.0208794
0.0237947
0.0273705
0.0188917
0.0133244
0.0150753
0.024589
0.0305835
0.0166589
0.0309665
0.0243082
0.0280299
0.0279267
0.0278854
0.0203919
0.0361671
0.0201446
0.0132225
0.0209448
0.0195936
0.0222613
0.108376
0.0170657
0.0574782
0.0218553
0.0379859
0.0271001
0.0610334
0.0127793
0.07408
0.0502961
0.0113294
0.0297603
0.0230206
0.0292048
0.0425914
0.0434295
0.0180911
0.0231033
0.0118794
0.0575339
0.0178361
0.110796
0.0133756
0.0164492
0.0729458
0.00963036
0.0841222
0.00979244
0.0254374
0.0241522
0.0264488
0.090101
0.0248032
0.0569211
0.0119546
0.0292467
0.031073
0.0266912
0.0322778
0.0195719
0.0348668
0.0988392
0.0294357
0.0482248
0.0926359
0.115665
0.0124227
0.0572184
0.015612
0.112172
0.0152232
0.0179727
0.026856
0.127582
0.0193019
0.110477
0.0154662
0.0357984
0.0676027
0.0259884
0.0675347
0.0290075
0.0158174
0.0238421
0.0587008
0.0328908
0.0454237
0.0247107
0.0314941
0.0158421
0.0111615
0.0261779
0.0202925
0.0509849
0.0196266
0.019651
0.0278015
0.0108466
0.0300478
0.0365028
0.0104913
0.0453759
0.0865971
0.0100428
0.020098
0.0722025
0.0342101
0.0220508
0.1066
0.0242044
0.0131105
0.0453929
0.027949
0.00952389
0.0112649
0.0108208
0.0159214
0.0847665
0.0289855
0.0421701
0.0264914
0.0124211
0.012472
0.0198021
0.0827732
0.00885481
0.0137322
0.0224509
0.0281479
0.0303601
0.102637
0.0396311
0.0573029
0.0133613
0.0186689
0.0942143
0.0108512
0.101093
0.0653221
0.0336405
0.0232877
0.0239261
0.0147091
0.130712
0.0291531
0.00829009
0.0234679
0.0226947
0.0167627
0.0743184
0.0185134
0.0136033
0.0331409
0.0178903
0.0559239
0.0199513
0.0318044
0.0332996
0.0607008
0.0517236
0.0164885
0.1358
0.0294356
0.0337338
0.0443446
0.0241185
0.0321923
0.0151533
0.0118046
0.0739957
0.00807358
0.119521
0.0444307
0.0346737
0.0793914
0.0280447
0.00927705
0.015964
0.102002
0.0479519
0.0320923
0.0409074
0.0216825
0.0652804
0.0533703
0.0549089
0.0200807
0.0218029
0.0610009
0.121565
0.0300969
0.0242811
0.024527
0.0292324
0.0133233
0.0218652
0.00820946
0.0206946
0.0483122
0.0113132
0.0128431
0.0501006
0.0393339
0.0391714
0.089795
0.0255045
0.0355295
0.0279865
0.0540125
0.118333
0.0268089
0.0501287
0.0362377
0.0899551
0.0437908
0.0142834
0.0586673
0.0245246
0.0236567
0.0478757
0.0273097
0.0417393
0.076561
0.029795
0.0759297
0.0154864
0.126177
0.011736
0.0285622
0.00867687
0.00976285
0.03773
0.00834743
0.0272973
0.0137277
0.0526755
0.0436904
0.0524041
0.00855044
0.0454072
0.0187888
0.0319825
0.0551877
0.0388691
0.0921182
0.0445759
0.0118306
0.0331756
0.0129432
0.0222234
0.0379692
0.0669476
0.0349805
0.0660247
0.0386584
0.0583218
0.0512447
0.0316841
0.115403
0.0299353
0.00909011
0.0574528
0.0603763
0.0361924
0.0668024
0.0411236
0.0244083
0.0187817
0.0723787
0.0361432
0.0155073
0.0119654
0.00808979
0.00550187
0.00404529
0.00320874
0.00263681
0.00220474
0.00171174
0.0148029
0.0116892
0.00907845
0.00692908
0.00528035
0.00412268
0.00335005
0.00281406
0.0022299
0.0129497
0.0110464
0.00958381
0.00800213
0.00636289
0.00501482
0.00404393
0.0033688
0.002729
0.0115197
0.0109346
0.0103828
0.00938193
0.0077632
0.00615988
0.0048509
0.00386489
0.0030089
0.011896
0.0119287
0.0118924
0.0114238
0.00970066
0.00765721
0.00579757
0.004316
0.00307649
0.0143687
0.0140801
0.0139857
0.0137963
0.0117934
0.00918292
0.00668281
0.00467915
0.00308593
0.0181174
0.0165801
0.0157462
0.0153406
0.013042
0.0100298
0.00711506
0.00481295
0.00307604
0.022138
0.0184375
0.0163475
0.0152454
0.0127946
0.00974834
0.00683727
0.00458087
0.00293691
0.0256751
0.0192747
0.0158426
0.0139598
0.0115478
0.00879029
0.00620786
0.00421273
0.0027528
0.0276276
0.0191429
0.0147318
0.0124045
0.0102569
0.0079627
0.00580794
0.00407955
0.00274049
0.0273245
0.0184047
0.0134242
0.0111126
0.0093679
0.00755601
0.005781
0.00424804
0.00295075
0.0252325
0.0172441
0.0124897
0.010273
0.0088921
0.00748726
0.00601753
0.0046301
0.00333383
0.0226159
0.0165969
0.0121418
0.0098828
0.00873804
0.00763491
0.0064057
0.00514253
0.00384141
0.0212271
0.0173777
0.0126787
0.009991
0.00886332
0.00792299
0.00685832
0.00570112
0.0044081
0.0244931
0.0209859
0.0148447
0.0108813
0.00932942
0.00832846
0.00730969
0.00621177
0.0049145
0.0343662
0.0279358
0.019296
0.013095
0.0103602
0.00891094
0.00775242
0.00663707
0.00534974
0.0498392
0.0375483
0.0260057
0.0172751
0.0124705
0.00988195
0.00826698
0.0070078
0.00572623
0.069795
0.049523
0.0347811
0.02372
0.0164043
0.0116764
0.00901144
0.00737687
0.00603549
0.0927213
0.0637593
0.0455795
0.0322816
0.0225
0.0148674
0.010225
0.00777385
0.00621017
0.114754
0.079135
0.057699
0.0422856
0.0300392
0.0195464
0.0122315
0.00831632
0.00625367
0.131269
0.0932124
0.0691625
0.0522455
0.0374758
0.0246848
0.0150817
0.00930959
0.0063262
0.130941
0.10023
0.0761933
0.0593387
0.0427417
0.0286298
0.0179441
0.0109285
0.00687619
0.116982
0.0978523
0.077083
0.0617413
0.0447847
0.0305677
0.0198949
0.0126821
0.008061
0.107451
0.0919304
0.0749147
0.0600029
0.0442182
0.030987
0.0210832
0.0142905
0.00971904
0.104268
0.0860997
0.0698999
0.0558709
0.0423651
0.0308296
0.022119
0.0161119
0.0121869
0.0040397
0.00254891
0.00158105
0.000982526
0.000629922
0.00043044
0.000345016
0.00037249
0.000498765
0.000731409
0.00102304
0.00133156
0.0015879
0.00186706
0.00184126
0.00150488
0.00122015
0.000794463
0.000317829
0.000342178
0.000123748
3.56689e-05
4.88942e-07
1.01459e-08
6.56986e-07
6.29324e-05
0.000620035
0.00201064
0.00293459
0.00334575
0.00374517
0.00388976
0.00364384
0.00412398
0.00553038
0.00667829
0.00762197
0.00817269
0.00795716
0.00723225
0.00601625
0.00467478
0.00355689
0.00291882
0.00304939
0.00345414
0.00295292
0.00209946
0.00156079
0.00124623
0.00104142
0.000899294
0.000840773
0.0011438
0.00237245
0.00414786
0.00601571
0.00794003
0.0100929
0.00492208
0.00335203
0.00237093
0.00183607
0.00163762
0.0015996
0.00152498
0.00140173
0.00131089
0.00133361
0.00148234
0.00168975
0.00189773
0.00206422
0.00190644
0.002055
0.00127883
0.00144945
0.000883643
0.00104421
0.000685714
0.000179053
2.30403e-05
2.60035e-06
4.33517e-06
0.000147304
0.000693111
0.00148815
0.00246167
0.00311256
0.00350113
0.00364236
0.00393583
0.00486627
0.00639107
0.00772279
0.00814914
0.00810381
0.00747584
0.00655141
0.00538348
0.00426456
0.00373095
0.00448928
0.00524378
0.00447665
0.00321327
0.00242748
0.00203366
0.00178585
0.00160458
0.00151676
0.00175761
0.00280038
0.00566039
0.00806697
0.00773876
0.00764151
0.00863481
0.00328611
0.00229203
0.0017403
0.00138213
0.0011823
0.0011295
0.00115822
0.00117212
0.00113383
0.0010997
0.00118091
0.0013326
0.00150652
0.00153528
0.00158507
0.00167892
0.00123006
0.00144717
0.000938003
0.001084
0.000706802
0.000611126
0.000425519
8.24704e-05
6.86532e-05
0.000335988
0.000730155
0.00124555
0.00191289
0.00299101
0.00421653
0.00533668
0.00523551
0.00618174
0.00670563
0.00690478
0.00655816
0.00602935
0.00534351
0.00464742
0.00406228
0.00410033
0.00513077
0.00546458
0.00459407
0.00332316
0.00243469
0.00199346
0.00176531
0.00162724
0.00155575
0.00160832
0.00209715
0.0039459
0.00594325
0.0056488
0.00449798
0.00450343
0.00528658
0.00195977
0.00136832
0.00118468
0.00119212
0.00126023
0.00131966
0.00133402
0.00131892
0.00131896
0.00131991
0.00129798
0.00124662
0.00122334
0.00123064
0.00120692
0.00123283
0.00113589
0.0011771
0.00101281
0.00117137
0.000926345
0.000788096
0.000858315
0.000223686
0.000322091
0.000742596
0.00125048
0.00143418
0.00213083
0.00210332
0.00299813
0.00308036
0.00341232
0.00357895
0.00364616
0.00353138
0.00330333
0.00311863
0.00296605
0.00288676
0.00308906
0.00391775
0.00480511
0.00468432
0.00395079
0.00322332
0.0026673
0.00227791
0.00201786
0.00186932
0.00183725
0.00202268
0.00259244
0.00335393
0.0035022
0.00277285
0.00243753
0.00271798
0.00334542
0.00136259
0.00102338
0.000872017
0.000785865
0.000741174
0.000741155
0.000767541
0.000786737
0.00079383
0.000791194
0.000774435
0.000764663
0.000809644
0.000879722
0.000968682
0.00110332
0.00119096
0.00131035
0.00123412
0.00113238
0.00115547
0.000869808
0.000736722
0.000207755
0.000421948
0.000873845
0.00159376
0.00171802
0.00250295
0.00238872
0.00262029
0.00273798
0.00273968
0.00274852
0.00272243
0.00259146
0.00241127
0.00238353
0.0024549
0.00271064
0.00334146
0.00397517
0.00395066
0.00368514
0.0034751
0.00331428
0.00312338
0.00288587
0.00260103
0.00230186
0.00212103
0.00210458
0.00220474
0.00223298
0.00188462
0.00153177
0.00156806
0.00186371
0.00236036
0.000888672
0.000668784
0.000618322
0.000632667
0.00065237
0.00065992
0.000661445
0.000662552
0.000664216
0.000666047
0.000670849
0.000654869
0.000669209
0.000711081
0.000791359
0.000887116
0.000887371
0.000949495
0.000990101
0.00116218
0.000940155
0.000812441
0.000589562
0.000208165
0.000235661
0.000509393
0.00075574
0.001085
0.00134826
0.00136462
0.00166766
0.0019119
0.00199989
0.0020707
0.00227894
0.00248858
0.00280554
0.00320095
0.00337612
0.00332697
0.00305433
0.00263935
0.00223174
0.00209509
0.00211931
0.00217874
0.00222182
0.00220652
0.00211131
0.00204713
0.00204015
0.00202925
0.00196057
0.00179825
0.00151125
0.00127557
0.00129974
0.00152687
0.00191605
0.000797705
0.000592449
0.000493273
0.000454654
0.000449698
0.00046178
0.000480995
0.000502708
0.000520158
0.000536902
0.00056665
0.00062278
0.000676167
0.000738699
0.00081953
0.000586743
0.000530987
0.000528981
0.000591236
0.000556716
0.000424785
0.000351581
0.000416621
0.000121258
0.000235317
0.000183246
0.000418106
0.000687688
0.000864201
0.000958754
0.00116649
0.00142659
0.0016363
0.00157542
0.00179469
0.00230196
0.00304316
0.00361996
0.00367468
0.00340917
0.00287196
0.00216679
0.00165394
0.00144858
0.0013841
0.00134591
0.00130666
0.0012771
0.00128102
0.001362
0.00154951
0.00176971
0.00185914
0.00171151
0.00134064
0.00101981
0.00100486
0.00119608
0.00153232
0.000722465
0.000549845
0.000471563
0.000441618
0.000431784
0.000440481
0.000470204
0.000511891
0.000555228
0.000587943
0.000598864
0.000605167
0.000602583
0.00060147
0.000612232
0.00047364
0.00046446
0.000478338
0.000356063
0.00045673
0.000300661
0.0002714
0.000102652
0.000228117
8.72033e-05
0.00011973
0.000241212
0.000483968
0.000594279
0.000711268
0.000890334
0.00126683
0.00144866
0.00160272
0.00187019
0.00217776
0.0024464
0.00265359
0.00259487
0.00237078
0.0020205
0.00153937
0.00121567
0.0010736
0.00101165
0.000973664
0.000957425
0.000981101
0.00107037
0.00124641
0.0014704
0.00159799
0.00151396
0.00121122
0.000832559
0.000673075
0.000729346
0.0009161
0.00121966
0.000777772
0.000619646
0.000509308
0.000429633
0.000380364
0.000360842
0.000360321
0.000373296
0.000395549
0.000434051
0.000495357
0.00054867
0.000518399
0.000429397
0.0003516
0.0001884
0.000241716
0.000306813
0.000243867
0.000256441
0.000170547
0.00016517
4.92936e-05
2.47716e-05
8.85137e-05
0.000190965
0.000397636
0.000402537
0.000447255
0.000580932
0.000827354
0.000998149
0.00131941
0.00180324
0.00221176
0.00205628
0.00180582
0.00180919
0.00168859
0.00159456
0.00144341
0.00119369
0.000970827
0.000831645
0.000763306
0.000739946
0.000782248
0.000905235
0.00106436
0.0011951
0.00124535
0.00117238
0.0010173
0.000832372
0.000648518
0.000543985
0.000555708
0.000692373
0.000928744
0.0692233
0.0639872
0.0587691
0.0562634
0.0570907
0.0574137
0.0530089
0.0447436
0.0356351
0.0280051
0.0230229
0.0213004
0.0225901
0.0237
0.0240944
0.0246343
0.0244514
0.0231742
0.0208567
0.0178617
0.014799
0.0124093
0.0111332
0.0105436
0.00898045
0.0602368
0.0602741
0.058614
0.056743
0.0547548
0.0511344
0.0450126
0.0376127
0.0307256
0.0253207
0.021785
0.0200387
0.01939
0.0189067
0.0185507
0.0185291
0.0186836
0.0189098
0.0189024
0.0184835
0.0174458
0.0157695
0.0140843
0.0124815
0.00975241
0.0554711
0.0568456
0.0558666
0.0530336
0.0488505
0.0433063
0.0366419
0.0298045
0.023863
0.0193691
0.01647
0.0149865
0.0144519
0.0143271
0.0143609
0.0145839
0.0150542
0.015693
0.0161994
0.0163101
0.0157202
0.0142047
0.0121616
0.0100087
0.00717099
0.0476746
0.0478703
0.0465886
0.0434771
0.0390632
0.0336642
0.0276733
0.0218596
0.0170576
0.0137655
0.0120063
0.0113645
0.0113167
0.011378
0.0113637
0.0113635
0.0115504
0.0119623
0.0124009
0.012568
0.0121481
0.0108868
0.00898481
0.00691386
0.00460076
0.0386605
0.0375565
0.0354854
0.0323557
0.0284426
0.0240601
0.0195148
0.0153695
0.0122569
0.0104553
0.00968979
0.00942451
0.009269
0.00901151
0.00860961
0.00820242
0.00798801
0.00804002
0.00823383
0.00835122
0.00817844
0.00747786
0.00620766
0.00466233
0.00298047
0.0302178
0.0277524
0.0251518
0.0221874
0.0189878
0.0157637
0.0127933
0.0104258
0.00890118
0.00816473
0.00786562
0.00762628
0.00727188
0.00677094
0.00615927
0.00557331
0.00519234
0.00509835
0.00521586
0.00538511
0.00543928
0.00514626
0.00435856
0.00326135
0.00203011
0.0238724
0.0202875
0.0172478
0.0144764
0.0119944
0.00992084
0.00834569
0.00723497
0.00654876
0.00624806
0.00610099
0.00583697
0.0053854
0.0048046
0.00417308
0.00359974
0.00321697
0.00309841
0.0032038
0.00341702
0.00358764
0.00352554
0.0031023
0.00242866
0.00164358
0.0211697
0.0155388
0.0119599
0.00944257
0.007769
0.00671826
0.00598211
0.00537704
0.00491568
0.00471924
0.0046223
0.00436194
0.00389586
0.0033167
0.00273656
0.00223717
0.00190344
0.00179404
0.00188945
0.00210408
0.00231806
0.00239784
0.00224951
0.00189979
0.00141379
0.0223536
0.0126749
0.00829455
0.00633962
0.00558504
0.005165
0.00470979
0.0042063
0.00374495
0.00353866
0.00344242
0.00319454
0.00277257
0.00224676
0.00175111
0.00134649
0.00107464
0.000977198
0.00104107
0.00120873
0.0014047
0.00155389
0.00158126
0.00146785
0.00128845
0.025558
0.0190245
0.0145107
0.00353257
0.000103019
0.000221774
0.00906144
0.000664436
0.0118825
0.000691097
0.295405
0.000309266
0.0201673
0.000743085
0.0127144
0.000190944
0.060943
0.00334574
0.000318234
0.0520608
0.0111932
1.91401e-06
0.0160165
0.000647276
0.00113442
1.11057e-05
0.000938698
0.00451517
0.0382246
0.0229186
0.00084021
1.7539e-05
0.00491105
0.0427318
0.0169831
0.000212013
0.00533975
0.0108028
0.00813392
0.000151421
0.0974381
5.72895e-13
2.94274e-13
0.00384692
0.00397293
0.000398497
0.562731
0.743932
0.0155818
0.0358688
0.609306
0.179102
0.0222163
0.00478843
0.00915061
0.0111125
0.00102703
0.0145801
0.000333481
0.196233
0.000277241
0.0151275
0.000126627
5.32036e-05
0.00064733
0.0219292
0.000381527
0.00140647
0.0236151
0.102254
0.0100644
6.32512e-06
0.000136817
0.0889186
0.00114678
0.00948918
0.127932
0.233375
0.00156402
0.00432053
0.0399986
0.000680388
0.000201179
4.96699
4.21568e-05
0.000173553
0.000167251
0.226951
0.00549448
0.00161162
0.00334004
0.00107268
0.00060095
0.000487032
6.88467e-05
0.247029
7.55939e-07
0.711904
4.03988e-13
0.205942
0.00136194
0.0882772
0.0014423
6.39851e-05
0.000194941
0.00216093
0.0209218
0.0378707
1.45627e-05
0.025309
3.16151e-11
6.73734e-05
0.0230058
7.3712e-05
0.018265
0.0188436
0.151097
0.000166768
0.0218783
6.03089e-05
7.10231e-13
6.88298e-05
0.000493985
0.000720344
0.00573985
9.19638e-14
0.179776
0.0302835
0.00413153
0.847878
0.000223943
0.0919053
0.104469
0.0218812
0.00158943
0.000167442
0.00387519
0.000932511
0.000355848
0.167129
0.000190227
0.00513223
0.294836
6.54438e-13
0.0340693
7.3928e-05
0.00202325
0.0280126
0.000191213
0.0180117
0.00203497
0.00791845
0.00274635
0.0232451
0.00110429
4.03402
0.000209353
0.000138848
0.370102
0.000305852
1.1415e-05
0.0108383
0.000206332
0.596971
0.00047612
3.57354
0.00110577
0.000897192
2.018e-05
0.000193552
0.000552622
2.33544e-05
0.00163514
4.39702
0.00101657
0.00178938
0.0534987
0.0574225
0.0386008
0.000249385
0.0630303
2.08839e-05
0.0237858
0.0607222
0.0311347
3.98255e-05
2.56702
4.82105e-06
0.0306459
0.000321289
0.29829
0.287197
0.0074345
0.0045371
0.0194899
0.0202281
0.000993752
2.41753e-06
0.0283808
0.0344965
0.0312139
2.18016e-06
0.000442477
0.000291064
0.00494963
0.000622077
0.000433128
0.00135082
0.0350951
0.000140745
0.000323692
9.60926e-05
0.0555282
0.00529732
0.00152948
0.0576649
7.71376e-05
0.000230279
0.000130178
0.00304503
0.00167956
5.17805e-13
0.000883426
0.01244
0.00575464
0.164968
0.00241931
0.0651208
1.26538e-05
9.12176e-05
4.50788
0.000225289
4.26634e-05
5.32623e-05
0.00720558
0.000440383
0.231874
0.00267852
0.0569047
0.0202633
0.000346021
0.000222183
0.000355512
0.00204261
0.00015144
0.000170327
2.22304e-13
0.0098787
0.000253428
0.000298578
6.80194e-06
0.00192901
0.000379596
0.0287501
2.82029e-13
0.000929362
0.0230992
0.134453
0.307492
0.000361556
0.00192805
0.00384745
0.000347822
0.00115426
0.0989981
0.000422726
0.000556188
0.0023082
0.00784327
0.000685519
0.0270805
0.00724569
3.87537e-13
0.00023389
0.000181479
0.00205912
0.000604585
0.0194552
0.00110162
0.37621
0.0571245
0.00199873
0.00128664
0.000256592
0.0435804
0.000171539
0.00208465
0.00293591
0.0633253
0.375238
0.0143366
0.000183091
6.41339e-13
0.103939
0.0324518
0.0503351
0.0235025
0.00118597
0.000295781
0.145574
0.347427
1.56639e-05
0.000170748
0.000147662
0.012305
0.000404891
0.00852604
0.000372713
0.0867498
0.000710309
1.33538e-05
0.000537004
0.0201777
0.00559683
3.89252e-13
0.00512399
0.434436
0.000388627
0.000946787
0.0200816
0.341869
6.06647e-06
0.00024159
0.000605727
0.000149382
0.000366388
0.144266
0.0384873
0.00149314
0.0191946
0.000382404
0.0185366
0.00120081
0.00059635
0.22294
0.000178789
0.000315787
0.000109726
6.25749e-13
0.0016616
8.70489e-05
0.0004237
0.141238
0.000375661
0.096685
7.6868e-05
0.000498588
2.93863e-07
0.000207186
1.65534
0.00634644
0.000689307
4.95581e-13
0.314578
0.084449
0.0057556
0.0275318
0.00430982
0.000312448
0.953295
0.0497554
0.00904257
0.000472859
0.163281
5.71566e-13
0.000230196
6.02981e-05
0.285446
0.000241628
0.031237
0.000379089
0.0266074
0.0536294
0.0118993
0.0212917
0.000234076
0.00010754
0.000357191
0.000218767
0.000424891
0.0204869
6.57643e-05
0.00515011
0.00513264
0.00435013
0.0216856
0.000405075
0.0538676
0.21361
0.222622
0.00561731
0.000601126
0.00319336
0.00474114
0.0645903
0.000794649
0.000642265
0.00418246
0.00014053
0.0417884
0.000768223
1.99963e-13
4.41569e-05
0.0268634
0.00028871
6.88525e-13
0.0113804
0.00334474
0.00614851
0.000242278
0.0119111
0.000298905
0.137955
0.000298193
2.41805e-05
0.00365126
0.0126756
1.75178
0.000151636
0.000842396
0.000433521
0.000221188
0.00181134
0.0014183
2.60915e-05
0.4695
7.15348e-13
0.000195805
0.000599869
3.10651e-05
0.000308505
0.000788423
0.00194414
0.00399043
0.0112365
6.5461e-05
2.35533e-13
7.06597e-13
2.59714e-06
0.000374744
0.000308106
0.0214617
0.0537685
0.00542773
0.0261123
0.00820125
0.00340302
0.00143306
0.000404742
0.00181118
0.0123874
6.91816e-05
0.00025192
0.103024
0.000406338
0.0924782
1.51681
0.000262086
0.00311795
0.0524097
0.000188691
0.0213968
0.0111663
0.0519711
0.391455
0.000478418
0.00024971
0.0141762
0.000340047
0.179489
0.00767872
0.000367905
0.00924419
0.000427056
0.000580196
0.0380779
0.00266211
0.000304485
0.0316391
0.0306452
0.00193809
0.0111431
6.11354e-13
0.000259211
4.44867
4.99597e-05
0.000726285
8.89683e-11
0.00766066
0.000183562
0.0285426
0.000274091
0.000123541
0.00545846
0.000228729
0.000205663
0.029734
0.000192527
0.000664108
0.0358374
6.91703e-07
0.0117812
0.000363824
0.00210032
0.0512317
0.044739
0.000286235
0.000331928
0.0112356
2.39952e-13
0.000107377
0.0414199
0.000755762
0.00212193
3.31326e-05
0.257615
0.0105731
0.0153498
0.0002244
0.0088627
0.000559002
0.469645
0.0518317
0.00726267
0.043712
0.000118982
0.44421
0.0367006
0.000545075
1.61193e-08
0.00176001
0.000270783
0.00236801
0.00555864
6.09149e-05
0.00838483
4.38125e-13
0.0550397
0.0308233
0.000244194
0.0173511
0.0277262
2.85362e-05
0.0267498
4.49212e-13
0.0099228
0.000167749
0.0010597
0.000237465
0.0237328
0.00689905
0.00981194
0.00521399
0.0367774
0.0146518
0.369115
0.00110726
0.000544608
0.0167735
0.0342542
0.000795834
0.0211468
1.88353e-13
0.0290516
0.0213748
0.000840079
0.00397983
0.000283206
8.22326e-08
0.00338022
0.0161257
0.000135465
0.0149744
0.000218972
0.000197879
0.0224783
1.4456
0.0418083
0.00150634
0.00408202
0.991999
0.0214912
4.89777e-06
0.000671313
0.000382418
0.00387172
4.92278e-05
0.000253017
0.0136046
5.36109e-12
0.000589834
0.000120613
9.87152e-05
0.061802
0.00049094
0.000260701
0.0401217
0.0167662
5.41527e-05
4.44271e-05
0.153406
0.0035876
5.24905e-13
0.000232555
0.0272115
2.85911e-13
0.000260152
0.00030572
0.00266672
6.9016e-05
2.22045e-16
0.00825881
0.000256263
4.66722e-05
0.00156295
0.0259965
0.000936815
0.00046274
0.00959055
1.96931e-06
0.000673137
3.87331e-05
0.000251821
0.00642738
0.000872236
0.174558
0.551984
0.00408935
0.00356343
0.00228582
0.000977731
0.000383404
3.19526e-07
7.35678e-05
5.028e-05
0.0342625
0.00262692
0.000721375
0.00629602
0.1047
0.00278152
0.00028922
0.0141918
8.02572e-06
0.000174535
5.96604e-05
0.00300898
0.0079128
0.174354
0.0558985
0.277121
5.87619e-05
0.000832163
5.20186e-13
0.000232835
0.000274575
1.52223
0.000343433
0.00823606
0.000140956
0.042048
0.00379305
0.766441
7.04979e-13
0.0004979
0.00032612
0.0217673
0.00158159
0.00519136
0.020523
0.000946479
0.000241083
4.41651e-05
0.347616
6.01952e-13
3.19774e-05
0.0159876
0.000242503
0.000269492
0.000444145
1.20098e-13
0.0261132
0.000323108
9.88408e-05
0.000519834
0.000320244
0.000445365
0.0380309
0.0296132
2.22045e-16
0.0117296
0.000136794
0.11327
0.00033015
0.000727248
0.000268057
1.63003e-05
0.0146823
0.000243486
0.000120472
0.000285779
0.00129342
2.73356e-13
4.94623e-09
7.63203e-05
0.159218
0.040544
0.00164066
0.78406
0.0055433
0.00601621
0.0142516
0.000245663
0.000202473
0.000636408
6.17567e-13
0.000313893
0.0407831
0.000123797
0.000235903
0.0194222
0.000335269
0.000544525
0.014986
0.000217413
0.000516687
0.000651865
0.00118924
0.0393838
0.0261777
0.000430935
0.0523474
0.0039764
0.0530098
0.0108511
0.0429183
0.0805661
0.00253681
0.000294531
0.000257764
6.47456e-13
0.00122182
0.000223144
0.0610591
0.0451854
0.000678501
0.358817
0.0056943
0.00109249
0.000761987
0.000317234
0.643763
0.00833821
0.00035633
0.00511725
0.0334818
0.031752
0.082128
7.90048e-13
0.000369159
0.0220239
5.7805e-13
0.0473932
0.00612211
0.0120441
0.0501834
0.000606312
0.0450954
2.56073e-05
7.787e-09
0.00649481
0.000433443
0.00112946
0.000294831
1.92481e-13
0.00529641
0.00029309
3.57654e-05
4.06407e-06
0.00029486
0.00404486
0.000116711
0.309682
0.00690929
4.0471e-05
0.00525222
1.77413e-05
0.136615
9.90278e-05
0.000397367
0.000494957
0.0354241
0.00141934
2.61514e-13
0.000233999
1.92274
0.00751411
0.0784039
0.000342787
0.034293
0.0387627
0.105936
0.00873455
0.0185608
0.00105083
0.00028105
0.015921
4.32393e-13
0.000732851
0.0034269
0.0154202
0.0129013
1.04178e-06
0.000112225
0.0361599
0.000505734
0.00928754
0.00924927
0.000257654
1.46186e-05
0.0207907
0.0689483
0.0345736
0.00037262
0.000341037
6.14137e-08
0.0349598
0.00634471
0.000118256
0.000723493
0.000148006
0.075875
0.000387751
0.00619603
0.0307282
0.000332516
0.000315895
0.00695222
0.00043873
0.0401596
5.29519e-05
0.0289591
0.000136834
0.000467422
0.0483904
2.19794e-05
0.000552391
0.000634713
0.0030165
0.0384046
0.242502
7.89952e-05
0.000340303
0.000174388
0.0146527
0.196119
0.0112953
2.97892e-05
0.0333849
0.00883244
8.11304e-13
0.00051961
0.000241173
4.63666
0.000144744
0.56411
0.000144889
7.08002e-13
0.0480816
0.000292291
0.00703356
0.00263111
0.0255961
0.371194
0.194227
0.945114
0.000520117
0.00330313
0.0131902
0.000200737
0.00935034
0.000230978
0.000335466
0.0685171
0.000326961
0.00269678
0.0120183
0.00889103
0.00173154
0.000538438
0.00826892
0.00101902
0.000121765
0.100516
0.0658332
0.0265653
0.000640915
0.00401298
0.771366
0.0116746
0.029256
0.0400698
0.0324064
0.00548294
3.74179e-05
0.0034853
0.0259708
0.000402335
0.00136224
0.00771262
0.00847946
0.000116793
0.00353581
0.0350118
6.55663e-13
0.000135341
0.000696023
0.107323
0.00976416
0.0539682
0.0248914
1.7577e-06
0.0036889
0.0103724
0.00210577
0.0480245
0.0106796
0.000417395
0.000214683
0.000301271
3.64663e-05
0.0376407
0.0837759
1.26421e-08
0.114174
0.000227051
0.221827
0.000354935
0.000228372
0.000544236
0.00624948
0.0528846
0.00404618
0.0306893
2.70154e-13
2.9705e-13
0.0076482
0.000772717
0.0226535
0.0189156
0.00767551
6.77852e-05
0.00140102
0.0146559
0.000256172
2.00168e-07
0.000303945
0.00735452
0.000670569
0.00108777
0.220144
0.0115674
0.00023749
0.00282453
0.000309556
7.85233e-05
0.000249424
4.15151e-07
0.0273776
2.46694e-05
0.00380729
0.0697844
0.0606687
0.0056529
0.000105875
0.00272234
0.0022073
0.000497482
0.0331126
0.000199224
0.000404213
0.0201709
0.00013533
0.00439102
0.00397794
0.000866984
0.0300911
0.000430856
0.00165675
4.00448e-08
0.00501998
0.00588424
0.136469
0.000902308
0.105636
2.38449e-13
0.00193014
0.000204047
0.158649
0.0539378
0.00108528
0.0309734
0.000458895
1.93027
0.000410734
0.0371476
0.000323019
0.000653716
0.00067002
0.00373158
0.00736009
5.67126e-05
0.000733857
0.0807455
0.000433784
0.000283757
0.000608384
1.37306e-10
0.000175283
0.858908
3.22465e-05
0.000299729
0.0432562
0.00174087
0.829548
2.71216e-05
0.000666182
2.57062e-08
0.00661987
3.22589e-05
0.000199363
0.0209692
0.00850466
0.00359227
0.000292386
0.00247533
0.00599244
0.133978
0.000278278
0.000602702
0.00102131
2.02089e-05
0.000162571
0.0010985
0.457754
0.00694579
0.016022
3.60726e-10
0.00990522
0.00685274
0.0017163
0.0581694
0.000151902
0.062026
0.00882726
1.28143
0.000290785
0.00039477
0.00147811
0.0509126
4.06469e-07
0.00863825
0.00230105
0.00513126
0.0116566
0.00738935
0.000173179
0.000665294
0.00080053
0.00106529
0.00351695
0.0680979
0.000270242
0.0116397
0.000132282
5.78029e-06
2.7804e-05
0.000426894
0.0313877
0.000609818
0.199152
0.0550854
5.10262e-05
5.09821e-05
0.0342048
1.53436
0.000461404
0.000147835
8.13388e-05
0.000888649
0.00476766
0.00168162
0.357771
1.85341e-05
0.000497414
0.0265968
0.000254205
0.00427421
0.00339844
0.000163431
0.000210657
5.00492e-13
0.000670151
0.0629665
0.00679386
0.0908915
0.000334797
0.00179828
0.000722743
0.0685559
0.0785948
0.000226387
0.00065876
0.404822
0.000145706
0.000229244
0.0163693
0.0652918
0.000333125
0.000774
0.000779442
0.00429586
0.0330738
0.00121007
0.00211803
0.0326928
0.0932029
6.33592e-11
4.28398e-05
0.00221283
0.000299253
0.00453802
0.0285778
0.000239641
0.128303
0.000398372
0.000291476
0.000203578
0.0309047
1.67491e-06
0.0304321
0.0115268
0.00846108
0.0339725
0.0272323
0.0107836
4.7109e-13
0.164775
0.0412583
0.000336103
0.00122992
1.6633e-07
0.00161397
0.000101175
0.000235231
7.16127e-05
0.00291239
0.000615465
0.0015983
0.00529072
0.000402173
0.0036948
0.00254694
1.17542
2.97644e-05
0.0422909
0.447895
0.000542451
3.9649e-06
0.00374442
0.00124647
0.00328377
0.105277
0.00842914
0.000373482
0.000308963
0.000124677
0.0586727
0.0799356
8.52084e-05
0.00137589
0.000415307
0.000557789
0.000159462
0.00327369
0.000790269
0.000692041
0.000942528
0.05855
0.000594118
0.00217396
0.0463032
0.000312093
0.00485197
0.00249481
0.00284778
0.00306786
0.00154211
0.0158558
6.86412e-05
0.0064962
0.0421245
0.000100708
0.00201973
0.00766378
0.000416207
0.000922815
0.000338843
0.0141387
2.30318e-13
0.0323769
0.000621134
0.00364699
0.0348171
0.0382766
0.0534566
0.000190888
0.000219888
0.0827845
0.0894216
0.000730478
3.41666e-14
0.000829695
0.0120183
0.000235051
0.00181702
0.000812067
0.000128318
0.00410178
0.00060368
0.000143512
0.000637529
0.0794198
0.0731497
0.000470833
0.000324497
0.000323011
0.000126069
0.000304647
0.0132723
0.000111036
0.00776087
0.00753298
0.0253667
6.99538e-13
0.133172
0.0544302
0.0654403
0.0647547
0.00107924
0.0353638
0.153249
0.191036
1.51237e-07
0.0214521
0.000271431
0.0122342
0.003477
0.00027786
0.030241
0.0300335
0.568095
0.046202
0.00165053
4.5813e-05
0.0058848
0.0926673
0.00105485
0.156033
3.15086e-10
0.0571415
0.000379014
0.034619
0.00358447
0.000111296
0.000348391
0.05766
0.000222881
0.00650216
1.23773
0.000149465
0.0157039
8.57565e-09
0.000146071
0.028324
0.00414808
0.00144291
0.029471
0.0132289
1.01082e-11
0.0449525
0.0016397
0.000579632
0.00184263
0.00190454
0.0278674
0.0359963
0.000225593
0.0427922
0.000395962
0.0212362
0.0015091
0.000508493
3.14707e-07
0.011269
0.00260319
0.126226
2.97067e-13
0.511883
0.00203309
0.0448142
0.195948
0.0020363
1.41942e-13
0.0217667
1.93241e-05
1.0545e-11
6.96864e-13
0.250386
0.0783874
0.000243924
0.0168614
0.0026285
0.000346075
0.00412202
1.80527e-10
0.000155044
0.0299982
0.000190759
0.000254154
0.000983941