/*--------------------------------*- C++ -*----------------------------------*\
  =========                 |
  \\      /  F ield         | OpenFOAM: The Open Source CFD Toolbox
   \\    /   O peration     | Website:  https://openfoam.org
    \\  /    A nd           | Version:  10
     \\/     M anipulation  |
\*---------------------------------------------------------------------------*/
FoamFile
{
    format      ascii;
    class       volScalarField;
    location    "100";
    object      nut;
}
// * * * * * * * * * * * * * * * * * * * * * * * * * * * * * * * * * * * * * //

dimensions      [0 2 -1 0 0 0 0];

internalField   nonuniform List<scalar> 
10435
(
377.084
569.645
790.107
509.756
187.91
149.39
625.603
73.8174
16.233
188.273
633.49
135.509
91.0772
2.34486
6.32137
323.59
2.74134
75.8826
15.0394
459.698
188.31
418.697
522.554
48.8885
260.602
25.7773
3.29806
627.23
4.88964
131.88
230.937
562.801
34.291
2.01876
50.3409
356.253
89.2361
4.25023
71.2465
23.5544
172.474
674.089
4.86277
638.61
197.28
41.2034
180.432
5.291
13.0544
304.774
90.2048
136.501
61.9808
15.401
45.5185
9.2228
52.7646
3.24035
2.97183
42.741
40.4575
488.032
2.74405
120.11
360.378
610.743
2.91157
4.6725
153.596
53.9962
16.4377
14.8549
4.01057
671.238
38.0334
3.74663
61.6755
450.168
19.0608
61.2207
147.836
252.941
49.1583
13.0022
111.601
320.14
382.381
680.359
162.112
459.523
656.638
559.688
313.801
243.425
547.369
293.125
431.354
18.7739
2.5035
309.518
68.4454
124.446
313.764
632.22
105.004
606.107
387.092
209.088
88.4521
118.002
406.364
160.452
205.412
164.049
406.962
519.882
238.026
386.658
678.75
239.184
190.898
3.28431
457.338
38.6277
396.918
28.8301
315.898
2.87051
212.259
9.10106
6.35423
502.284
162.056
15.1243
9.21873
13.5165
237.618
386.948
624.578
563.77
534.553
309.311
2.73581
114.215
305.39
3.177
141.962
124.445
3.45
104.741
5.54995
98.9472
428.054
103.981
158.239
10.0738
289.459
539.574
192.32
539.013
115.411
2.73806
580.745
126.141
117.221
171.585
26.647
207.802
74.9945
129.703
228.07
4.32382
3.23398
9.91586
84.3456
469.825
416.632
4.88937
465.349
2.86921
631.03
124.065
119.346
30.3959
182.057
4.92746
4.07995
358.463
147.229
120.866
160.492
37.0103
11.5659
297.13
211.977
249.481
3.87376
243.432
5.2394
187.237
139.354
4.82309
249.685
4.05574
514.184
363.448
665.63
281.249
3.05571
216.704
5.96443
637.335
143.03
106.482
2.33557
2.71239
192.202
17.0125
26.2835
1.88177
3.61584
4.15929
3.42827
18.215
19.0433
87.4028
34.1517
145.953
157.687
3.05104
4.80849
46.0287
29.314
66.5184
5.64979
3.41283
49.4056
21.9821
53.606
271.784
597.872
22.8481
9.77976
12.0016
469.811
16.7994
206.596
184.691
8.0193
399.638
14.4799
221.734
87.5026
159.704
273.486
142.83
10.9335
348.873
9.50723
5.08012
457.539
186.543
25.2699
78.8063
248.407
4.03225
515.715
459.255
29.2859
280.126
610.782
89.6277
196.928
303.415
23.5324
189.29
6.27079
247.986
330.187
46.334
158.912
4.60069
818.264
45.7687
285.978
17.3454
123.733
46.3553
9.26281
2.52222
99.2981
558.451
3.03388
134.982
77.1029
16.853
2.99386
306.371
335.757
378.269
5.1305
60.9648
1043.5
6.34194
449.629
3.75147
4.02683
60.8574
485.867
5.49219
451.693
7.00387
345.403
117.146
22.6805
16.5855
25.3912
124.314
4.46192
162.056
106.051
2.23898
351.388
27.1208
22.6528
194.967
20.8932
1082.08
3.85672
3.45998
30.9914
2.39651
3.05263
828.826
84.3909
3.64959
14.4354
10.0256
1.53667
3.69794
17.9653
12.9037
36.4697
4.09012
5.20714
6.32591
3.91774
6.17684
19.3768
13.9261
1.75822
303.597
4.07648
779.404
14.2662
12.3334
73.7672
597.16
14.3259
3.43422
11.7513
28.5076
5.02434
23.446
2.26169
15.0195
4.46769
94.5569
14.9824
12.8865
33.0885
12.3485
45.7465
12.8421
11.3457
4.90166
2.45622
4.54752
6.27737
23.2512
7.04859
36.0479
30.0582
3.83796
118.974
11.9581
409.821
184.006
11.8984
982.002
34.6895
4.28978
5.09343
7.41717
15.8529
1002.86
10.6904
40.4423
7.73784
2.55841
10.3819
2.80728
17.5832
477.407
2.98394
61.3564
65.9452
6.0214
20.6394
7.91255
13.567
9.47784
17.9302
17.1277
6.80507
5.055
2.84087
849.388
16.6797
19.2395
3.50453
1.98247
44.6641
5.49239
9.09984
13.6125
2.22834
132.545
134.132
187.838
248.122
245.994
178.257
102.919
52.8963
26.5037
187.061
219.05
304.07
360.191
326.754
232.199
133.895
67.9368
33.2804
254.127
319.618
417.065
437.965
365.236
254.295
149.244
76.1466
36.3741
369.294
441.29
503.198
467.455
367.239
256.572
158.618
85.4506
41.0958
597.326
583.772
562.133
475.825
363.653
258.13
168.664
98.6079
50.6497
972.853
780.007
641.121
504.198
378.046
270.084
181.886
112.906
62.6109
1492
1088.3
785.907
570.533
415.35
295.267
201.513
129.743
76.3233
2115.83
1528.69
1027.81
695.002
489.587
346.779
240.861
161.07
100.096
2726.85
2029.65
1370.88
910.656
639.141
462.772
335.407
237.16
156.096
3172.17
2453.63
1764.34
1239.21
912.704
698.034
536.319
399.732
273.892
3353.4
2692.43
2103.05
1641.05
1312.43
1066
852.458
649.276
449.829
3235.87
2680.95
2267.34
1977
1720.71
1461.63
1186.42
902.367
623.098
2797.01
2383.81
2126.96
2042.97
1933.13
1710.52
1404.41
1067.92
740.348
2078.59
1861.16
1700.63
1751.11
1818.74
1708.7
1444.67
1114.67
784.802
1501.72
1440.3
1275
1283.62
1430.08
1461.7
1309.61
1044.38
750.717
1295.75
1244.65
1030.57
902.016
964.626
1059.4
1032.81
869.631
641.193
1235.73
1134.75
894.462
676.068
607.897
655.413
693.965
631.094
482.444
1170.52
1019.28
777.008
539.656
402.699
373.804
401.242
396.906
320.778
1067.02
884.93
654.712
436.523
292.921
223.808
213.602
219.457
191.295
926.279
740.663
532.797
347.907
224.267
150.665
117.659
111.226
102.609
768.279
598.528
419.663
271.319
172.986
109.956
73.4072
57.2358
50.1439
588.677
455.574
315.066
204.446
130.726
81.7687
50.953
33.8117
25.0382
398.14
315.554
221.379
147.516
95.7294
60.2372
37.2128
23.3917
15.375
238.095
199.688
147.251
102.376
68.2032
44.1529
28.2445
18.2192
11.8472
135.42
119.581
93.9706
68.6377
47.9624
32.8925
22.422
15.1252
9.93528
1.3106
0.985277
0.702349
0.480254
0.320799
0.221642
0.195322
0.230869
0.280127
0.342845
0.40837
0.458292
0.46843
0.494866
0.446941
0.330896
0.233267
0.147859
0.0748701
0.169764
0.101778
0.0259954
0.00112598
2.19985e-06
0.000148114
0.0867462
2.9465
19.7035
48.855
107.546
220.213
396.936
640.442
1046.21
1567.88
2002.52
2129.87
1948.98
1467.22
982.654
565.382
256.298
84.1577
22.0585
8.09355
5.43561
5.32144
6.86123
10.8959
16.6354
19.6596
15.4088
7.51999
4.44659
7.28302
14.5475
27.8649
47.6447
70.8908
1.18905
0.915521
0.701628
0.56996
0.509744
0.495559
0.521824
0.584833
0.627205
0.612282
0.557113
0.499883
0.438554
0.362341
0.253628
0.308457
0.228658
0.511452
0.378756
0.868341
0.618887
0.167603
0.0430021
0.00359859
0.00502158
0.248535
1.35389
3.44518
6.9613
12.1264
21.3792
42.4435
106.004
226.777
411.967
813.868
1030.6
1073.96
870.367
540.594
233.612
69.2317
20.0384
12.1667
11.6815
11.7564
14.5985
23.7672
38.9602
47.2723
33.587
12.3222
3.64853
2.07455
3.1285
4.77676
9.05236
21.9492
45.3561
0.877424
0.724067
0.631027
0.594346
0.600624
0.603648
0.569881
0.495304
0.395703
0.317807
0.308649
0.37851
0.490357
0.466681
0.372635
0.32759
0.329404
0.741828
0.609062
1.23122
0.824025
1.28445
0.865592
0.155233
0.189978
1.19124
3.143
5.84283
9.26498
12.8894
19.7031
29.5135
38.0719
113.99
321.96
601.305
797.844
852.895
670.031
337.056
103.015
28.4381
17.2273
18.898
21.115
24.6733
33.8644
49.5534
60.3776
51.1648
26.7631
9.18342
3.50142
3.41744
4.54636
6.36001
13.5867
38.9474
79.8258
0.639711
0.578985
0.60035
0.610659
0.574938
0.515428
0.455675
0.409473
0.380007
0.365453
0.382818
0.448104
0.609169
0.763449
0.71533
0.595336
0.607101
0.971746
1.20382
2.22371
1.82634
1.30255
1.74628
0.442044
3.514
6.66802
12.0652
13.5978
18.2068
7.38036
9.81595
40.9971
118.751
235.854
399.43
558.555
658.619
619.143
402.93
169.366
56.9319
26.3786
21.4974
25.8484
33.9828
46.0561
59.555
68.4198
66.0078
50.4108
29.4904
15.4155
10.1189
9.10403
9.4971
13.721
34.2203
86.0393
142.04
0.620008
0.604122
0.620065
0.637739
0.635155
0.609314
0.576988
0.548125
0.528902
0.512342
0.516551
0.635981
0.907952
1.1262
1.18888
1.21882
1.41519
1.99023
1.92078
1.98074
2.92656
2.14644
1.53449
0.441569
3.35095
6.89781
15.7174
27.1884
46.8322
45.0223
70.5331
143.786
232.233
330.516
422.938
454.436
382.643
252.439
129.15
59.1236
33.8914
27.5009
27.2294
32.1991
40.4365
47.071
48.1529
44.03
36.3329
26.6845
17.5308
11.3275
8.2958
7.28435
8.26081
16.6966
46.6919
100.468
149.089
0.700132
0.77731
0.905403
0.972226
0.995816
1.0087
1.00433
0.989312
0.968261
0.9334
0.952951
1.17349
1.64274
1.96977
2.01529
1.95098
1.78425
1.64158
1.41604
1.43765
1.32202
1.21806
1.00384
0.356401
1.8807
5.52668
14.6827
59.5713
103.484
126.785
157.584
182.727
234.774
281.418
285.041
215.101
145.57
94.8548
50.4773
25.3584
15.6621
13.9828
17.3381
26.2064
36.8799
43.1488
42.8905
37.9564
30.4119
22.5456
16.1717
11.7822
8.97278
7.3849
7.35151
12.1361
29.4709
62.4906
97.5857
1.00065
1.00176
1.0259
1.04828
1.05922
1.05177
1.01759
0.957846
0.894117
0.864131
0.913074
1.08332
1.23474
1.30238
1.36929
1.5729
2.89481
3.62649
3.70144
2.81421
1.56712
0.668995
0.719497
0.282645
0.763181
5.53438
53.787
198.358
327.341
363.309
302.499
210.605
204.503
202.665
192.244
160.936
131.978
106.667
69.9335
38.8205
22.5405
18.1415
21.7792
32.0767
42.4094
45.3612
40.2942
30.8015
20.7019
13.0859
8.95195
7.10387
6.16216
5.50147
5.26077
7.45283
17.0461
35.3201
54.8406
1.22285
1.14345
1.0283
0.871289
0.7306
0.642713
0.602413
0.573488
0.542328
0.514581
0.495057
0.52285
0.540504
0.511057
0.481971
0.525084
1.40599
2.45002
2.96845
7.26698
4.57763
3.31375
1.08469
1.67523
0.504838
1.24202
21.4692
254.221
433.954
357.789
180.449
117.938
106.769
93.1531
100.247
109.539
98.2711
83.308
59.0944
36.8855
26.4352
25.4603
33.0473
46.525
55.4819
51.3251
36.6855
20.927
10.6431
5.76479
3.79022
2.95562
2.48609
2.15036
2.20905
4.1313
10.101
19.1535
28.3606
1.22347
1.05669
0.909197
0.838549
0.862415
0.941239
0.968455
0.887046
0.721478
0.550817
0.445571
0.412485
0.391737
0.308851
0.234687
0.298459
1.2283
2.12352
2.11087
5.34882
3.7284
7.96315
2.22743
1.19977
9.4698
39.9958
150.685
204.512
205.293
139.592
72.9226
57.0062
47.4419
41.2511
56.7294
76.0764
81.7906
78.6223
59.3734
40.5698
30.6708
28.0614
32.7268
42.1012
46.5698
37.3561
22.8701
13.5397
9.01977
6.62757
5.04263
3.79467
2.83706
2.23487
2.14471
3.05084
5.66195
9.65535
13.9993
17.3617
15.4585
13.7096
12.3974
11.5993
11.0106
10.2678
9.29408
8.20035
7.05487
5.85631
4.76964
4.1838
4.10926
4.33328
4.62685
4.72886
4.49117
3.91852
3.18819
2.58393
2.35593
2.46855
2.55492
2.21078
16.1167
14.8584
13.3821
12.0714
11.052
10.1856
9.29599
8.34684
7.38184
6.38612
5.34815
4.44002
3.89878
3.74867
3.85206
3.98857
3.95188
3.64794
3.12787
2.58428
2.21346
2.11143
2.22446
2.27106
1.92793
15.2664
14.2205
12.7656
11.2834
9.97749
8.86397
7.86478
6.93435
6.07876
5.29088
4.57008
4.00702
3.71425
3.66799
3.70466
3.64431
3.39978
3.00833
2.57582
2.2114
1.96698
1.85187
1.83816
1.77671
1.45246
13.6443
12.9061
11.4966
9.93536
8.50728
7.30819
6.31366
5.49118
4.85826
4.43484
4.17453
4.01102
3.92602
3.87524
3.76659
3.51497
3.11969
2.67843
2.29011
1.99698
1.78588
1.63509
1.5182
1.36608
1.06773
10.9503
10.8506
9.68656
8.22569
6.86624
5.76357
4.93606
4.38139
4.13916
4.18616
4.31281
4.31946
4.1936
3.98225
3.69482
3.30871
2.83905
2.38186
2.02107
1.77115
1.5975
1.46078
1.32491
1.15427
0.897393
7.48939
8.16801
7.54284
6.39301
5.26816
4.40662
3.87758
3.69655
3.86211
4.23472
4.50217
4.47103
4.1937
3.79965
3.37288
2.93156
2.47665
2.07054
1.77717
1.59721
1.49176
1.40692
1.30388
1.16491
0.940467
4.16094
5.22643
5.31213
4.68437
3.95123
3.46588
3.3187
3.47136
3.85977
4.32635
4.57597
4.44197
4.00775
3.45268
2.91682
2.44982
2.03951
1.71915
1.52871
1.45614
1.45297
1.46553
1.46088
1.41797
1.27126
1.95987
2.68349
3.24339
3.27573
3.12579
3.128
3.30937
3.60954
4.0059
4.42069
4.59871
4.37432
3.82181
3.13469
2.49649
1.9873
1.60164
1.35703
1.26651
1.30328
1.41186
1.54162
1.66307
1.72078
1.59355
1.13327
1.23584
1.73976
2.32627
2.82994
3.23763
3.56184
3.85263
4.16983
4.4548
4.49706
4.19149
3.57232
2.81248
2.10754
1.56995
1.20249
1.00884
0.977048
1.07078
1.24339
1.44692
1.64921
1.76097
1.64083
37.9513
37.9176
63.7991
4.01638
0.715065
1.97311
6.65478
5.01616
45.3956
3.22722
12.3916
36.7912
4.69589
2.62986
2.7566
0.331752
0.373399
4.27338
2.69798
127.396
13.698
5.23939
4.22824
6.76455
7.49225
2.98228
7.22435
4.04256
26.039
1.21768
4.26792
1.40725
8.76988
97.4197
1.30643
1.26256
5.17677
2.89764
8.01
0.419813
16.4259
8.54939e-14
1.63605e-13
2.16692
5.04194
19.5491
6.17505
15.9786
25.3254
36.6133
6.36802
31.9689
52.8058
6.05529
6.35462
44.1085
3.57323
24.4026
1.20068
35.6926
0.38617
65.176
1.01659
4.66686
5.47267
0.950194
0.670036
12.1499
4.89924
26.3721
30.1154
0.80612
0.963435
139.435
16.1434
12.5978
89.633
16.4429
0.110513
6.87191
107.897
1.0418
30.7901
0.167854
0.139826
0.305354
1.49034
17.0791
7.73787
10.0143
14.332
58.0525
2.81464
51.479
0.575925
12.4895
0.0971887
8.52821
8.14949e-14
32.5732
70.7148
15.4376
82.9951
3.53672
0.945345
4.89628
5.3009
111.561
0.643714
1.07221
1.45937e-09
5.3905
2.72216
6.49996
42.3325
25.6053
21.9716
0.384683
49.9451
4.5962
8.64345e-14
3.18953
6.32453
5.41606
7.89282
1.59852e-14
32.2443
33.9576
4354.74
16.0065
22.8119
146.408
27.8732
15.9111
5.29011
1.3473
5.7462
34.9198
1.45668
0.276157
4.08738
7.08939
30.8112
9.2468e-14
28.3552
0.171874
4.15674
20.383
0.38876
1.15541
9.30133
189.655
3.92095
4.42087
25.4649
0.183927
0.513008
0.493273
52.2108
1.88803
6.77315
33.5841
1.07472
8.73643
0.871558
0.137813
5.28255
7.39281
0.239717
0.605121
1.9558
0.494187
11.0729
0.154628
131.087
23.7282
34.5069
37.2018
18.4051
6.34091
15.9348
1.75937
60.6479
13.5469
0.994229
1.29895
0.122241
0.213446
23.2358
0.460149
22.5724
29.5335
88.7512
7.68108
2.49225
11.4595
14.9632
0.308746
30.5102
20.3744
6.52923
0.0174121
0.752692
0.359177
50.4397
1.53193
0.766023
76.7944
19.9755
0.493082
1.25114
3.62722
19.2983
69.1575
6.39975
11.3061
1.25169
4.3331
2.18347
26.0586
3.2973
8.47625e-14
12.8636
56.0868
4.81458
22.8443
3.92057
0.405554
0.633812
0.763528
0.178811
1.8172
5.78298
1.97215
7.44571
6.16694
34.0057
3.33354
11.6443
2.12775
5.17906
0.308503
0.778209
0.378589
1.06216
3.56756
7.06843e-14
4.75935
0.355545
17.1936
0.310709
11.01
0.606183
25.5114
7.86732e-14
2.30229
2.32934
76.2021
51.8522
3.85723
10.0827
3181.91
0.574107
25.4288
146.233
3.63153
3.53378
6.02009
7.70429
8.37011
24.0225
80.2725
8.77833e-14
4.9401
0.22347
6.5136
0.935184
9.18566
6.91852
29.1689
1.99705
8.30435
10.8239
17.1117
18.3256
0.357607
5.46586
26.5034
11.6663
19.4337
1.34669
2.90309
8.73633e-14
11.6843
23.4478
11.564
9.26749
131.783
1.18513
22.7745
29.1048
1.30523
7.25723
0.442082
5.64138
0.696814
11.2565
10.7254
0.490647
1.11132
0.859277
0.387476
9.53437
3500.87
8.15313e-14
10.6712
6.8325
0.590222
5.81429
20.6301
52.5697
0.103527
7.76078
2.50122
1.35103
2.84829
24.548
106.064
228.506
28.5703
1.00446
2.22788
2.67046
4.51473
21.0649
0.389226
37.0092
14.7542
8.68227e-14
11.1691
1.28167
14.7441
22.6798
0.298148
145.701
1.97202
6.64941
0.0273513
1.07964
0.428157
83.7188
2.6736
8.56047e-14
45.0006
11.8216
5.00142
40.6637
8.17166
0.727405
0.195241
21.5682
2.90859
21.4383
23.6522
8.4485e-14
1.18119
1.22269
10.6303
2.05201
29.4553
0.319668
3.88267
31.7064
7.47112
6.15023
2.00722
2.78875
1.49636
4.62339
5.06905
8.70872
6.03842
8.51827
1.1479
6.72228
30.3796
0.905443
127.661
12.1839
24.3948
22.5068
2.04456
8.90114
4.55854
17.0069
2.24288
0.850589
9.87347
0.56466
28.1041
3.84272
8.00071e-14
0.152932
52.8319
2.95767
8.53561e-14
3.88233
6.17194
50.5742
2.66731
4.09129
1.15947
20.5802
1.92192
1.05315
7.69682
23.0391
0.699854
0.815197
20.5745
0.850798
2.3081
5.38774
66.1012
0.526319
20.8508
8.85308e-14
7.5703
26.1657
2.71101
0.438507
1.58973
21.4783
0.172367
3.02414
1.63797
8.55821e-14
8.71771e-14
0.259591
20.115
2.71482
2.43142
11.5391
27.3639
6.36844
34.6279
3.94737
2.63966
1.7118
0.942938
8.20483
10.8026
1.26371
20.0401
0.303614
24.6309
0.127208
0.399997
16.4702
47.3844
7.20709
0.831601
5.77628
26.6428
27.1466
1.81887
1.05111
61.2674
4.24515
11.4224
6.00404
1.40029
1.94833
16.6637
3.97989
63.1092
97.9164
0.529926
21.9473
18.7583
8.17427
6.99966
8.32317e-14
18.6983
0.163778
0.264338
1.17114
1.07765e-07
31.2517
9.27593
3.16991
2.45749
2.25965
3.51414
3.15184
1.35431
3.21766
0.374326
2.14628
34.1387
1.01163
2.35486
1.2077
3.25717
37.2921
88.606
0.378511
0.501184
4.26962
8.01457e-14
25.7409
95.6767
58.6453
80.8929
1.24728
11.535
6.06483
16.4651
2.27997
5.76561
0.445516
19.1189
115.943
6.58598
83.9484
0.707036
23.6287
10.3054
1.3556
8.70974e-05
33.0876
7.816
7.60467
14.3381
7.49205
60.9171
3.98692e-13
19.6693
29.196
1.52617
20.8576
0.773354
3.23465
7.2484
8.18503e-14
47.0696
1.13616
2.33582
0.40456
5.50732
5.29356
5.50844
4886.34
23.5493
21.3795
8.02315
13.9011
0.52757
10.6294
23.7011
50.1937
12.528
7.0734e-14
23.5252
1.12992
1.90053
5.24061
3.3893
0.00373475
9.44832
7.41163
0.634663
4.68705
1.06855
1.26604
2.07311
1.50449
28.4968
3.33325
10.9073
0.394037
53.7268
0.164833
0.293795
10.4492
9.82415
22.2789
2.22868
47.9845
2.23994e-11
1.53664
0.372318
7.05517
3.61146
0.552909
2.78138
80.6311
15.7699
0.365025
3.27868
23.9803
3.00629
8.4786e-14
8.42561
30.0668
8.01478e-14
0.375308
0.620121
16.7657
10.5633
2.08238e-19
6.8173
4.58165
1.55568
23.2173
39.3769
9.24802
4.54001
45.5521
0.0341015
2.67381
0.622894
0.542862
52.6458
6.98457
32.8433
1.12769
4.19686
9.13504
16.0461
4.20008
1.32952
0.0226119
0.145596
3.40958
37.8519
4.84491
7.71976
186.513
9.81166
5.01069
2.17764
0.75066
4.94612
1.58263
1.82977
20.2238
53.9661
30.1418
3.80413
41.8349
1.23405
2.89288
8.45956e-14
1.03178
0.736538
2.20888
3.05549
8.76423
15.4064
43.7853
12.0561
9.8218
8.41729e-14
1.63418
9.8804
9.49498
4.75962
0.380664
52.2337
7.41402
0.723795
0.173699
27.2512
8.63199e-14
7.84102
9.68745
1.25482
0.356792
2.55841
7.88624e-15
45.9456
8.93963
21.6297
4.13037
2.14427
1.46665
33.2008
8.08298
6.55703e-20
3.29216
1.06052
9.5714
19.5553
0.451521
14.3896
3.68761
66.1703
0.849998
15.6212
0.972908
13.0011
7.91966e-14
1.49882e-06
3.61912
36.3494
4.31083
6.23154
15.5877
2.23227
23.7714
1.32651
0.28186
0.456328
2.13634
8.8465e-14
4.02846
1.58163
0.113184
1.98661
9.65479
1.41245
15.5303
4.28789
3.91011
24.959
3.12641
4.83491
85.7729
10.1194
3.6504
21.3752
63.4092
40.0355
9.59428
11.0281
11.9133
7.89948
9.21973
0.480367
8.71996e-14
11.1116
0.796962
15.3988
46.8243
0.473506
42.5866
33.9405
10.8644
3.66811
1.71011
0.365879
33.2452
51.324
27.6844
3.8162
82.4891
41.9374
8.86731e-14
29.4576
4.03756
8.35522e-14
54.2307
58.0571
2.61693
3.39901
1.4295
3.2663
2.40595
1.72881e-05
0.321848
1.4243
45.5275
2.6823
7.19888e-14
46.9422
0.383458
1.03701
2.04804
1.62551
14.7531
0.606697
27.4439
2.39089
3.5066
83.8335
0.943411
1.72315
0.314827
2.96766
0.324515
22.7483
5.59122
2.12645e-14
13.5149
1.76767
26.5232
31.1457
0.993444
22.4085
17.7796
19.3117
39.6989
10.1528
9.18329
0.488385
5.25769
8.32678e-14
3.68137
9.19822
9.80885
60.1581
0.12272
0.342518
31.9549
1.52235
42.8986
2.51566
8.37723
1.95402
12.6562
39.5447
114.291
1.08537
5.88935
0.00217739
21.6003
4.70946
4.85843
2.98821
1.47342
28.5755
20.754
3.26574
130.879
2.81674
1.4797
22.9684
3.46518
39.7135
5.71298
19.1949
1.04416
4.12315
15.4785
9.59062
0.383259
2.19113
3.65329
35.0442
19.8728
1.15804
2.10143
1.13556
4.2357
0.596881
53.0992
1.19057
11.3365
2.39596
8.9394e-14
8.03455
2.59587
0.170996
0.734094
3.10661
0.132441
8.55472e-14
7.1884
0.545632
7.43188
7.76031
17.9048
29.1439
33.5759
1.2181
3.81008
8.30471
4.66781
0.384667
5.55104
2.39225
2.0867
68.2267
1.22729
23.9538
9.74643
40.6822
19.7777
12.5092
6.97574
10.315
0.555838
9.22945
43.2604
36.3379
0.547843
8.54244
16.0952
1.85545
30.0084
46.0949
42.4968
31.2058
1.02123
7.55274
16.8335
0.665581
4.77786
151.316
2.60799
0.0914454
4.768
136.686
8.81729e-14
7.99337
0.415912
18.8476
82.8356
38.2181
29.4407
0.0187579
3.47205
5.06361
6.65548
48.7164
18.2683
26.6255
0.313705
1.13729
0.844372
24.5826
8.55383
7.26226e-05
21.7222
0.637594
28.0089
1.24852
0.910872
4.96326
13.3699
47.7071
3.34389
24.0316
1.02783e-13
8.16494e-14
1.70598
29.1494
28.9829
15.3161
6.73249
3.45431
8.57978
1.76014
0.249584
0.00362671
0.601316
6.74508
1.10602
60.9956
24.2931
3.57454
1.23089
7.52108
6.61825
8.69134
1.58278
0.0830966
31.547
1.2869
6.92144
19.3889
65.6867
11.5245
0.895774
18.2563
9.9618
9.38121
25.811
1.56936
19.7017
2.51113
0.206591
4.59076
22.5727
4.53973
21.3609
5.16671
5.90462
0.000573672
16.3882
19.5296
18.52
8.32305
30.1578
7.80562e-14
10.1686
0.273873
25.018
11.1205
15.3458
0.594082
21.7193
2.63399
0.542607
31.0173
0.561807
3.47294
0.952114
4.40628
2.4384
6.71245
0.258831
94.9829
6.9116
0.774314
6.47249
1.19455e-08
0.939336
14.8793
0.464479
7.32824
3.78201
21.8608
0.752846
0.556734
0.375096
0.00152036
6.81237
1.46961
10.5341
9.27918
7.12853
4.58344
7.6438
6.18498
16.5373
23.1771
1.0438
0.257106
8.02934
0.322522
2.24861
5.44704
22.3587
10.2794
11.3742
1.88907e-07
1.20481
6.78354
55.876
53.5516
0.172231
42.462
3.2455
0.788319
2.21097
1.67934
12.0531
47.789
0.00468636
36.3049
4.02118
11.5731
6.52962
0.435825
0.455596
10.2865
5.13317
6.1964
8.33112
41.8566
2.15378
7.94013
0.802481
0.476496
1.6886
2.48727
58.3028
38.1449
2.49085
31.2394
0.191509
4.91343
32.6511
4.20434
13.9469
1.44478
5.24951
6.00638
10.5496
20.4539
30.1517
4.41661
3.90094
61.9239
2.35191
44.4107
2.25558
8.685
1.24847
8.02744e-14
1.7721
15.7949
23.8054
35.0202
0.967108
50.4372
17.9997
13.2114
14.8637
0.522508
4.90003
46.9533
0.874484
1.66584
159.334
39.0583
10.6034
6.41529
72.1355
3.58782
59.5102
6.25496
18.788
160.363
21.4371
1.3597e-09
1.89649
13.9477
0.2606
13.7285
70.6958
4.07684
23.7398
1.53697
0.28438
0.61127
40.7868
0.430032
10.8303
8.00016
6.67722
146.561
21.0811
6.86321
3.22394e-13
25.1303
59.5203
20.9927
6.82862
0.0119088
35.232
7.71816
2.87381
3.43562
2.21013
6.30458
49.8298
1.67437
13.2013
9.84611
10.1337
0.493206
0.552661
11.4109
10.6427
15.3042
0.891785
10.7509
14.6083
9.58921
26.3289
35.8849
0.399102
3.27854
0.343893
10.9055
15.4432
0.20868
4.41297
0.968889
15.3585
0.463802
4.36784
5.27783
33.3079
7.48845
23.372
2.04815
25.0306
1.59657
0.571479
4.95649
20.8999
8.1715
8.54852
5.65171
39.4792
0.584153
16.5384
18.8576
0.304956
8.16247
2.64324
0.831355
1.2662
0.416503
4.33258
7.65516e-14
34.0192
0.21715
1.97374
44.3219
40.3916
27.5465
5.28188
0.445789
102.574
30.1455
1.78724
1.19144e-15
43.4011
6.33529
0.663101
25.8933
13.7999
3.02567
7.97671
34.9342
0.966334
12.6252
35.9842
78.1723
1.53955
1.01575
1.65939
6.3831
0.62761
65.8969
2.54406
66.2536
7.11799
24.2982
8.63202e-14
36.0001
31.5793
9.14275
35.5996
9.33805
46.6647
28.0833
26.378
0.0316731
19.0652
0.769159
32.2717
38.1833
1.04283
16.6325
3.4829
15.673
55.1404
65.887
3.9942
11.9209
45.8055
5.62542
28.3126
8.80754e-08
33.8458
0.52777
36.9194
31.8262
0.92302
0.53338
75.5525
1.72041
76.2551
0.152834
28.1616
27.6351
3.59163e-05
19.5814
49.5786
50.8597
10.9597
74.4804
1.89752
8.84679e-11
45.7518
5.41745
0.483195
10.1254
14.2704
26.934
15.0991
8.35746
11.4543
1.63559
24.2922
5.84507
0.470982
0.29334
14.6277
6.02292
14.0588
7.95852e-14
22.0095
8.28504
50.3379
19.2791
9.35514
1.91719e-14
24.8588
0.435475
2.02063e-10
8.65416e-14
30.1931
49.1782
1.81701
6.07272
22.4021
0.515304
12.2094
5.5005e-08
11.8237
11.365
0.179927
30.966
2.78439
3.78069
14.1759
2.84442
47.1149
41.5509
6.00068
4.75087
0.234319
24.5049
19.581
2.80247
2556.42
33.3189
5.77154
1215.54
40.6917
6.82879
3.43031
49.0243
24.9671
2.7868
16.2179
2.85481
5.2137
0.585564
7.70124e-14
2.1795
4.52447
53.5712
8.29656e-14
13.3492
13.85
10.9763
1.5901
6.81221
6.68571
0.62814
24.8871
15.452
5.86121
0.0924883
8.22039e-14
0.556623
26.2901
20.0679
0.185657
0.683266
12.4836
0.00088418
22.7729
8.76083e-14
12.1723
24.6531
49.0987
14.2914
1.50069
2.63032
52.9926
7.97886
30.7303
0.0277814
1.06462
0.905003
17.6092
2.65623
31.4499
0.636394
4.92057
8.42556
44.7506
0.650085
6.18325
17.0606
22.9326
6.57703
6.34317
48.1917
29.723
19.297
57.0402
19.0882
0.776125
2.15393
0.860591
4.70062
99.9824
6.68357
0.203852
54.9378
0.15704
14.7714
31.7734
15.0553
9.79688
522.406
0.361709
63.5963
71.2197
18.9426
22.0141
1.56816
2.51526
32.9819
3.45957e-06
0.236105
1.0732e-15
7.88387e-14
2.18753
0.487374
4.63975
57.8918
0.722151
6.94454
0.111403
1.63815
9.35879
13.4966
6.04206
10.734
37.1948
2.82409
57.8501
3.71305
30.5283
12.3497
1.44182e-06
3.0346
2.01287
23.5602
1.39728
0.00579129
4.65665
128.531
3.14323
5.94117
1.46859
4.29317e-11
5.18143
2.09541e-06
0.28087
5.57081
1.05561
4.02603
32.2014
5.44588
0.45769
57.7757
35.5754
15.6153
18.7281
4.46833e-14
0.0654462
10.1396
9.09929
0.822848
8.75741e-14
63.337
21.1797
1.13604e-13
23.434
2.73874
0.380131
6.25317
1.76727
19.1774
0.509145
114.988
22.7333
30.0418
7.01271
20.8758
1.98063
91.8015
2.01081
0.135604
2.59399
1.84936
2.25873
17.1313
41.0825
6.23453
37.8085
4.30521e-14
1.47297e-07
8.89538
11.5832
13.0307
3.01622
0.51661
6.0233
0.21345
2.03623
8.5278e-14
4.45948
1.17236
0.621223
76.513
0.141893
15.8613
2.21911
28.5395
16.3397
1.9587
24.0893
9.24911
8.93507e-14
65.2849
0.938882
6.28416
21.9731
0.331071
31.3372
31.6395
39.9239
11.0241
1.76001
1.07171
25.8529
2.32774
1.50023
6.14873
29.2327
24.9773
0.749488
2.0481
502.494
1.75201
2.88671
108.13
1.30731
71.2763
1.42254
33.2336
0.296871
9.66251
14.8467
1.32565
6.42506
0.560915
32.3801
29.3095
22.055
1.13323
81.6598
13.4001
4.83337
2.37697
10.6577
0.0492073
13.1145
22.6054
11.7292
1.94422
1.49945
16.7494
62.5204
4.79109
17.9775
34.337
1.42978
13.6258
55.1323
6.76502
72.6224
5.13442
41.2199
15.9399
1.71169
1.55396
3.49277
1.83527
0.450988
27.1446
46.2962
9.84344
26.4124
1.20643
2.32379
8.9665
34.3754
12.1061
0.0072637
2.31966
0.1046
6.56781
6.22727
3.44683
0.712256
9.93988
27.9132
25.4279
27.3606
0.454928
11.1253
0.359008
1.22456
1.97721e-09
5.22478
0.191653
3.44688
11.4611
113.383
37.9815
2.56956
68.8277
2.46588
1.13399e-08
10.754
5.0668
28.9779
3.87947e-05
4.98411
6.76872
0.337838
0.528647
2.11334
0.487262
47.4956
1.54019
2.60211
5.57371
126.186
35.3659
3.80194
66.1782
5.91974
10.8685
0.505023
2.39351
63.136
20.8691
1.49064
20.1178
4.99785
5.90806
54.5711
18.2326
21.8077
3.43361
4.94707
27.8509
23.7326
1.1355
7.72198
9.49448
23.8765
3.61234
7.36946
18.982
8.38361
3.28734
0.00558564
4.19932
1.25076
40.6513
9.96733
18.9281
0.743835
5.34661
33.285
2.87555
4.35511
16.0738
22.8801
7.36607
2.3602
26.0648
11.5171
1.88095e-05
22.015
24.501
7.98978
6.75086
7.12579e-14
12.4773
8.29172
14.4471
10.1613
72.0027
3.02755
0.483478
1.04417
18.3874
9.06535
1.04846e-13
5.84209
5.11275
1.63067
2.15426
22.5055
3.35864
9.04676
8.29181
0.451213
6.27587
4.676
0.968524
1.24302
99.3244
0.638624
2.14277
0.87344
0.34207
172.973
2.03224
25.736
8.88768
9.17282
2.45425
1.39984
5.53162
16.9028
9.69815e-08
1.8033
28.618
0.644614
1.04109
5.5478
7.67627
0.0302239
13.3839
1.71956
11.5935
0.313817
25.0641
8.34267e-14
1.9332
8.71421e-14
2.17853e-06
2.57256
22.0587
2.59014
0.919379
4.91263
0.785488
9.81421
0.866825
38.2
3.58296
35.1681
3.41768
30.0689
2.37314
25.1598
8.88878e-14
52.4234
14.3623
101.334
0.631729
38.306
3.00756
8.16227
0.224911
12.7379
30.7043
17.3663
3.00705
18.9078
0.108189
28.2798
10.0612
0.822936
22.5998
1.21351
42.8613
1.43186
11.4566
7.81019
0.0171653
0.779838
8.07305
9.68111
0.990281
3.55112
6.36891
6.21529
9.23792
1.08222e-13
37.9078
11.834
4.39846
13.9835
5.8066
1.06489
7.94712
23.7469
1.66144
1.16627
31.4845
8.07752e-12
13.1707
4.5849
6.98595
2.5877
63.8053
0.00493475
4.41294e-15
9.34716
3.70545
2.83356e-12
3.71425
44.1122
1.48905
38.1892
1.41257
1.90543
26.1468
149.002
9.16811
1.46113
6.05893
9.95307e-10
2.36501
9.84443
28.0826
19.379
0.000249071
2.77423
9.25248
9.87985
5.7874
0.655517
1.48436
0.483587
0.198526
191.151
32.1346
64.2481
19.2482
8.84521e-14
4.08852
4.90443
24.4959
5.31418
0.760225
15.9409
2.27998
0.0117253
3.96771e-05
7.56166
8.93798
3.92456
22.5512
28.134
8.61527e-14
2.97802
2.99333
2.26801
9.62327
15.2978
3.92256
1.29178
29.2128
0.16722
0.658806
1.68604
6.08566
1.08597
60.0361
8.65128
61.2283
7.42948
8.2116
4.95032
3.42623
14.7071
0.330136
31.0482
4.88829
1.35233e-10
0.0636141
10.3149
34.3532
8.43017e-05
3.07818
7.07588
2.93469
24.0941
0.358047
0.836316
1.72322
20.5643
8.7078e-14
0.285404
18.2534
15.2319
2.63505
1.49824e-13
22.175
47.727
0.164858
4.13972
1.73095
28.1168
8.5664
2.48766
3.11059
24.1678
2.37031
23.1508
1.88003
18.6585
12.0332
3.71175
2.00343
7.857e-06
4.26738e-08
1.0616
74.7034
9.10263
13.7932
4.74668
4.56897
2.26964
27.4288
80.1007
14.8562
0.499668
4.64146
2.96905
2.62287
13.0569
0.268199
2.99171
11.8885
1.05982e-13
26.6344
0.68331
18.829
24.7321
24.615
15.8673
24.0382
6.16365
1.19652
9.63584
7.6448
12.9722
2.43162
16.4932
6.63044
1.23597
7.57639
0.413129
2.9369
8.69797
24.4263
1.70682
16.9098
3.34878
7.78408
24.3075
1.30163
15.4836
4.92457e-11
6.18147
0.117447
2.78284
4.2276
8.56906e-14
20.8442
1.04207
21.5755
0.702884
0.294443
0.407594
24.0819
8.93386
4.33958
12.6854
13.721
0.618517
4.47086e-11
31.2856
38.2382
62.6584
0.00388696
6.56449
7.81874e-14
22.5736
3.7384
6.56368
0.108012
12.3005
4.40726e-14
1538.57
45.9266
8.60877e-14
34.2759
19.9723
6.2708
2.06894
0.981179
15.2545
3.08848
9.97833
11.5863
7.28016e-14
6.49446
10.8003
52.8597
2.38508
5.33502
0.683607
0.985005
12.7853
1.41079
8.34694e-14
2.86082
4.18813
5.60172
15.961
0.837838
14.0306
7.94745e-14
34.4806
2.29097
15.8048
3.40306
8.71578
0.112747
7.62278
0.566217
31.8398
163.942
4.0543
10.54
7.77677
23.7568
6.34853
263.822
2.48044
8.94136
60.1882
10.4868
2.57192
7.63419
8.77473
2.90183e-06
8.95431
0.49066
7.38457
0.832404
1.53048e-09
0.374101
0.679426
9.71859
0.640627
7.98015
1.35347
0.000165352
1.58843
2.57994e-12
15.8896
0.289066
17.2139
0.0258237
10.4916
47.1822
11.3223
1.53689
4.13005
4.46856e-08
9.9487
21.6475
8.70706
68.7101
4.24378
22.5678
10.7234
24.4417
26.146
26.6815
2.60874
8.73194e-14
3.57222
13.4748
28.1051
26.959
0.253937
16.57
2.56309
2.65198
8.83272
5.49413e-14
25.0433
6.1341
22.5046
1.40576e-05
21.2394
1.26693e-15
85.5175
7.54302
5.83651
3.45354
31.784
5.36532
1.75014
8.82216
3.24157
1.71687
3.96101
20.4547
10.4268
1.04371
52.7516
5.90656
300.115
3.07855
2.77445
28.7256
9.70689
1.40857
31.3004
5.8385
0.418012
19.3942
1.90428
9.97687
9.5654
4.45244
29.8021
4.77326e-15
1.87691
3.36993
11.3717
1.1031e-12
7.72144
12.1755
0.164354
44.8726
34.717
21.4147
7.56856
6.02137
9.01149
59.2871
0.138509