/*--------------------------------*- C++ -*----------------------------------*\
  =========                 |
  \\      /  F ield         | OpenFOAM: The Open Source CFD Toolbox
   \\    /   O peration     | Website:  https://openfoam.org
    \\  /    A nd           | Version:  10
     \\/     M anipulation  |
\*---------------------------------------------------------------------------*/
FoamFile
{
    format      ascii;
    class       volScalarField;
    location    "100";
    object      p;
}
// * * * * * * * * * * * * * * * * * * * * * * * * * * * * * * * * * * * * * //

dimensions      [0 2 -2 0 0 0 0];

internalField   nonuniform List<scalar> 
10435
(
7.42339
11.0112
-187.555
-19.3992
-43.6694
-117.427
-241.204
-243.902
-256.367
-252.865
13.7991
-91.8697
-339.492
22.6064
23.6004
-183.714
23.0813
-351.219
-243.493
12.6262
-203.686
-20.9579
-158.567
-142.318
-162.132
75.6768
18.011
-301.85
23.2852
-273.479
-134.658
9.6505
-242.428
25.9714
-188.431
20.831
-164.54
15.6714
129.923
-217.058
-193.541
-134.634
23.6021
6.84126
-147.988
-170.221
-164.53
22.5172
-269.754
-34.6357
-215.975
-108.639
94.0419
21.4144
177.661
24.837
-161.351
18.7557
24.0951
-177.067
91.94
8.93929
20.191
-94.293
-150.95
-157.34
24.3851
21.7033
-230.784
-114.124
37.1638
23.2794
24.6796
-130.818
27.9334
23.8548
-90.5166
-265.917
-265.469
30.0199
-60.5199
23.9139
53.4686
22.982
-69.9094
23.2416
11.902
7.38218
35.3341
5.24007
1.08837
-14.7526
18.7021
27.0706
4.92811
30.1819
-37.2199
25.9916
24.1989
-49.4836
27.0123
-26.2654
20.25
6.53444
-39.7418
-3.36976
17.4495
-48.4844
-71.0488
33.2026
-12.1477
-15.4078
29.1152
30.2211
-8.44896
-1.1501
-60.6955
13.8813
8.51046
-68.7982
-68.0174
23.2235
6.98442
25.7546
4.35932
78.8145
-57.4022
22.7741
-52.2508
20.7611
23.0629
17.7542
-191.694
26.1667
23.7132
26.2324
38.1916
-38.6579
6.78081
11.5523
13.2068
-118.069
25.5514
-100.596
-37.5927
21.7115
35.4587
-98.1955
23.0467
-112.48
23.078
-149.344
7.31748
-116.193
-126.809
25.136
-3.67151
4.91372
-165.479
22.409
-119.18
23.9362
2.46773
-74.3874
34.3445
-84.6205
-236.107
-68.562
-108.007
-105.582
-147.474
24.345
20.6063
22.7459
-108.513
20.8123
13.1527
22.9472
6.1605
24.5327
14.655
-100.241
-104.184
61.2511
-136.588
24.4322
22.984
-218.422
-58.5929
-106.665
-96.2089
36.8953
37.3189
33.4797
-9.59403
-238.573
22.6518
31.5579
22.8431
-169.182
38.9157
23.5965
-333.06
20.3417
-208.485
-31.4446
4.18098
-57.0657
21.6888
-53.1764
24.4458
-151.01
-93.9311
-93.3453
18.2671
22.4774
28.6197
29.668
-23.7208
23.7926
24.2925
22.9294
24.4797
24.4085
32.2848
-187.526
-77.7026
32.5929
-107.06
22.7908
23.0586
-224.107
-40.9639
-129.414
21.5823
23.7388
-128.468
43.2047
-121.515
-133.298
8.20994
47.2158
25.5691
22.8555
-47.699
-257.958
35.5773
-245.865
20.1424
21.2623
-1.11813
27.2841
-292.67
-65.5124
-264.768
-56.7376
-0.698451
-266.26
24.3012
21.2731
-232.576
-108.028
51.2798
-103.34
24.7012
24.1978
7.46798
-146.385
46.256
-47.6033
-246.908
-256.038
-251.242
-198.74
-10.7336
-76.4558
19.9927
-33.2172
-194.531
-267.551
-240.607
23.0353
-278.092
25.9571
22.0057
28.3992
-72.2157
-87.1427
22.7998
25.0013
29.9958
23.3966
22.9072
-256.186
-48.1519
-35.147
22.1821
17.3864
-18.0836
-143.468
22.453
-106.726
-272.127
19.4668
-8.16721
22.6168
23.7308
-121.731
-184.245
23.739
13.2096
19.7712
27.4691
-70.3996
-237.855
-29.5195
57.5363
-116.589
22.9639
-77.8435
-66.8418
20.1661
14.4605
26.4376
-279.332
-257.483
-14.0366
-285.135
23.9497
17.9796
-207.111
24.832
25.5483
-249.501
-116.231
19.8603
26.3355
25.5701
26.8441
22.284
-19.6035
29.7017
60.0518
22.3755
21.1849
20.5435
21.6102
16.9909
25.8799
-272.98
26.8518
-177
20.195
-321.964
-277.637
-288.038
-397.034
-153.867
22.5298
25.5977
22.19
104.16
23.682
24.3818
19.2634
-8.34766
19.3754
-101.313
45.0145
-271.663
132.49
12.4163
-392.419
-289.607
24.909
21.5418
18.2188
16.6179
24.2168
71.5052
25.7743
52.0644
-257.415
23.235
-250.152
-286.57
-357.916
-357.557
-285.571
-285.675
-220.387
22.9164
23.8991
24.4247
38.014
-295.308
25.1427
-411.065
26.013
22.4508
26.4944
25.467
28.0059
-245.231
18.4274
-254.529
-108.222
24.8772
61.0217
16.1641
-257.14
26.958
57.1901
23.0932
25.8066
22.8978
21.2474
-175.949
-4.69405
29.3478
22.3366
25.7791
-404.147
24.7159
26.2331
-288.738
26.8056
1021.59
526.091
417.26
96.6612
-8.34767
-11.3633
-11.5046
5.60169
17.1826
1237.47
545.697
449.597
143.9
38.7689
29.2485
15.1122
19.5534
25.966
1459.42
549.871
389.039
107.544
23.623
21.9858
12.3921
18.3864
27.4947
1606.78
593.191
287.034
67.937
9.30088
23.4756
18.8227
23.5361
31.376
1677.93
672.282
157.311
35.5617
-4.13973
27.7663
28.8476
32.8683
36.7307
1669.57
815.466
49.4895
43.457
4.32792
45.6252
45.1177
46.0822
44.4229
1554.62
1051.78
14.3931
117.592
49.8138
85.8215
71.3803
63.5424
53.9773
1266.7
1341.21
109.992
300.889
151.278
153.997
108.492
85.2129
64.5725
708.973
1339.25
246.091
577.23
297.933
240.231
145.74
103.015
72.7699
-244.535
787.056
205.158
826.363
430.32
315.234
166.866
107.418
67.4839
-1771.14
332.293
-10.4071
862.068
473.345
350.12
166.431
99.3916
53.5836
-3623.83
485.133
-305.936
708.562
428.683
347.72
159.824
94.2278
49.9764
-5109.43
1155.89
-530.493
477.824
328.352
327.154
161.547
102.846
55.2056
-5399.44
1718.67
-572.05
238.042
184.123
280.723
161.573
116.211
76.5295
-4918.54
1912.44
-533.457
-47.0609
-56.2247
158.596
124.734
108.429
94.3482
-4737.42
1944.65
-507.566
-300.041
-335.631
-40.128
36.2726
66.6648
83.2492
-4672.37
1876.25
-487.795
-430.369
-512.858
-234.016
-74.9933
6.78092
51.8558
-4035.48
1614.66
-421.858
-434.521
-519.118
-326.567
-155.371
-39.2171
24.4018
-2641.98
951.534
-325.075
-365.111
-407.214
-300.404
-173.46
-63.1493
2.77666
-860.694
32.0251
-225.188
-271.748
-260.46
-207.765
-135.308
-60.2042
-6.00769
350.347
-818.592
-127.869
-163.493
-129.735
-108.442
-74.6412
-36.9256
-5.35185
599.091
-1171.88
-60.7123
-112.836
-47.9496
-38.6592
-24.2885
-9.21289
3.66737
375.802
-726.425
16.2028
-52.2729
3.60617
0.436679
4.85794
9.74451
13.7494
135.761
-125.225
79.3719
6.47979
23.9061
15.6148
16.1308
17.4278
18.2635
-11.5783
94.8032
92.1807
35.5834
35.2355
24.3205
22.9914
22.2256
19.9198
46.6446
44.1035
42.1578
40.9834
40.2461
39.8638
39.6973
39.7661
39.9441
40.2551
40.7133
40.9182
40.6135
39.8454
38.5719
37.2581
36.5043
36.2394
36.2002
36.2182
36.2295
36.2321
36.2356
36.2402
36.2452
36.2531
36.3164
41.3011
70.7
161.819
396.962
809.162
1094.38
1902.99
4794.47
7814.66
9275.96
8215.6
4927.77
2504.61
941.789
242.166
79.4036
77.8763
82.8253
84.2547
86.3057
95.6497
114.759
140.785
162.91
178.04
184.088
191.836
207.259
244.355
333.332
502.664
705.871
37.3015
36.8191
36.6165
36.5764
36.6922
36.8704
37.1134
37.4878
37.8215
38.1703
38.5502
38.7695
38.6064
37.9526
37.2404
36.7847
36.5231
36.4235
36.3429
36.3121
36.2843
36.2428
36.2408
36.2561
36.2776
36.3388
36.9545
42.2371
62.454
112.583
209.946
392.533
797.396
1363.28
2326.32
3862.15
4029.01
2991.46
1526.6
389.906
-155.254
-194.131
-143.443
-97.8114
-68.9038
-50.2442
-30.4336
6.73535
50.8889
89.0562
100.979
93.3978
89.3908
91.9163
97.5009
108.179
132.243
195.691
310.643
35.76
35.5189
35.4362
35.4456
35.5338
35.6809
35.7874
35.7448
35.5944
35.4929
35.5447
35.8883
36.3955
36.4655
36.0269
35.6123
35.5803
35.9186
36.1318
36.312
36.2804
36.1753
36.1635
36.1772
36.2263
36.5933
41.0515
62.1933
114.168
202.626
321.379
472.268
644.332
1034.01
2165.32
3465.78
3735.47
3154.96
1912.29
723.454
127.288
-3.46839
-12.2604
-0.38503
3.61777
5.68489
20.5188
55.2858
87.3815
96.7592
78.4819
54.2492
43.1639
44.9482
49.4091
56.4144
77.764
145.166
250.385
35.5802
35.4709
35.5612
35.7344
35.8949
36.0059
36.0732
36.1718
36.2878
36.4158
36.5575
36.7529
37.0967
37.2104
36.4937
35.7595
35.7332
36.2071
36.7452
37.1358
36.6929
36.1219
35.9147
35.8993
35.935
38.0094
51.0148
86.7444
143.773
173.949
213.973
328.047
609.778
1008.9
1389.96
1537.66
1327.61
943.5
467.542
123.546
-6.95352
-51.6929
-58.4807
-46.2317
-25.3274
-3.08585
20.1812
43.536
51.9891
38.865
9.64183
-14.5645
-25.6855
-29.2861
-32.4549
-32.1459
-19.6496
9.22198
29.0118
34.9452
34.8497
34.8393
34.8565
34.8668
34.9028
34.9501
34.9899
35.0498
35.0806
35.0771
35.2724
35.7554
36.0637
35.8807
35.7232
36.4745
37.6832
37.5525
36.9685
36.7533
36.0484
35.373
35.2804
35.3243
37.7823
52.0918
88.5561
137.027
164.359
235.891
389.458
530.047
635.237
709.456
650.082
450.059
267.792
98.0644
0.0831591
-30.1591
-37.9575
-37.5844
-29.1764
-12.9247
2.23129
9.70924
10.0893
-1.55978
-20.4144
-38.7771
-51.2342
-58.5505
-62.0832
-62.3002
-57.5932
-46.5447
-39.4113
-45.8563
35.1467
35.1242
35.1747
35.1761
35.1456
35.1178
35.0646
35.0375
35.032
34.9639
34.8726
35.1124
35.7596
36.1817
36.2121
36.4383
37.2875
37.9445
37.7832
37.4245
36.6378
35.8558
35.4464
35.36
35.405
36.533
46.7672
97.4714
201.286
237.894
214.849
189.524
250.488
364.003
425.192
329.101
256.161
192.296
85.4859
29.9595
13.5569
11.4612
15.9858
26.4153
38.8906
47.0982
45.7907
35.9187
20.161
6.23332
-4.01653
-11.8806
-18.6844
-23.9315
-27.1959
-25.9879
-19.6256
-16.4143
-24.3339
34.7937
34.8854
34.9932
35.0582
35.0949
35.113
35.1155
35.1027
35.0642
35.025
35.0288
35.1283
35.0808
34.6799
34.0354
34.4261
36.5583
37.9821
37.7739
37.0057
35.9958
35.5834
35.4755
35.4595
35.4856
35.9361
49.7668
131.898
236.857
240.203
29.3273
-96.63
-83.1228
10.4308
118.868
171.133
164.47
143.795
79.0305
16.5965
-6.49549
-9.78624
-5.40195
6.47354
17.9648
23.3984
19.7371
12.1084
3.2392
-3.26279
-7.02732
-9.10774
-11.0769
-13.4731
-16.051
-16.8785
-14.7398
-14.9941
-21.1527
34.944
35.1506
35.3468
35.4569
35.5074
35.572
35.6698
35.801
35.9487
36.0849
36.21
36.363
36.4416
36.3674
36.252
36.4844
37.1178
36.7896
36.4851
37.0951
36.4691
35.7421
35.5215
35.5185
35.5185
35.6803
40.2109
113.034
186.675
124.307
-45.1293
-81.0332
-55.4
-28.2597
18.8741
51.1467
37.2822
22.8535
-1.52775
-20.6452
-21.1079
-14.4466
-4.50004
10.8893
24.3339
30.4249
27.7895
21.0701
14.3016
10.0354
7.91429
7.09954
6.63445
6.29649
6.20995
6.95321
8.07386
6.42845
2.13271
34.54
34.7286
34.8597
34.9462
35.1591
35.459
35.7796
36.0696
36.269
36.4036
36.5283
36.6784
36.7543
36.7303
36.6996
36.911
37.5521
37.2847
36.6517
36.5051
36.1177
35.7915
35.8109
35.7087
35.5602
34.785
53.6594
63.6803
87.839
64.4276
27.2439
20.5436
21.4522
25.4003
57.9874
97.4013
90.5597
82.6811
49.6255
24.6988
15.9103
14.9351
18.5861
28.0648
34.7146
34.2058
31.223
28.2477
25.1097
23.3244
21.8349
20.4682
19.586
19.3973
19.2045
19.2131
18.3763
17.1455
15.2561
-35.2043
-30.9894
-20.3941
-11.5027
-3.94556
3.21597
7.78569
8.7922
9.24113
11.95
16.6327
21.1467
24.6223
27.5525
30.3432
32.9128
35.2762
37.428
39.2987
40.6657
41.6481
42.4868
44.0138
46.7991
48.7177
49.0933
47.9994
42.4832
34.0705
28.8256
32.4143
39.5072
43.6109
44.8914
44.7525
43.7258
42.3989
41.0946
40.225
39.4244
38.3962
37.9787
38.3069
38.7541
39.0045
39.1297
39.1811
39.2916
39.6966
39.1637
26.6203
26.4584
27.5808
27.8134
28.3899
30.3811
32.3788
33.2286
33.4051
33.4975
33.6642
33.9607
34.3261
34.8249
35.2704
35.5132
35.7667
35.971
36.1525
36.5424
37.0688
37.589
37.7996
37.6274
36.8661
27.705
27.4995
28.7281
29.3559
30.25
31.3345
32.2101
32.7404
33.1714
33.6914
34.3631
35.1378
35.8613
36.4128
36.6734
36.6842
36.5956
36.5228
36.4787
36.5699
36.7386
36.9312
36.9585
36.7777
36.1648
24.9505
25.358
26.68
27.6291
28.4608
29.1897
29.7037
30.1624
30.7802
31.6814
32.7655
33.8113
34.6113
35.0802
35.2505
35.2421
35.1927
35.1619
35.1746
35.2831
35.458
35.6589
35.7451
35.664
35.3212
24.1833
24.6597
25.5166
26.2724
26.9765
27.6282
28.295
29.1225
30.1937
31.4763
32.7343
33.7692
34.496
34.893
35.0104
34.9805
34.9166
34.8662
34.8604
34.9222
35.0651
35.2495
35.3879
35.4279
35.2601
25.0984
24.4368
24.5211
24.9113
25.5084
26.2687
27.2207
28.4064
29.7315
31.1564
32.4041
33.365
34.0286
34.3973
34.532
34.5343
34.4985
34.464
34.4577
34.5017
34.6131
34.7709
34.9108
35.0075
34.8533
26.0347
24.8709
23.988
23.9488
24.5392
25.5358
26.7715
28.1812
29.6271
31.1534
32.3476
33.1827
33.7603
34.101
34.2541
34.284
34.279
34.2763
34.297
34.3502
34.4487
34.5863
34.7362
34.8986
34.8053
25.9819
25.085
23.9369
23.6795
24.26
25.3274
26.525
27.9913
29.5821
31.3677
32.5314
33.0897
33.4442
33.7232
33.9271
34.0185
34.0886
34.1545
34.2366
34.3185
34.4145
34.5379
34.6003
34.5376
34.3306
-358.9
-383.669
72.7257
58.6159
33.6405
33.7334
25.9718
34.1029
78.8509
43.7087
352.333
37.8276
-344.669
29.2684
26.063
37.3724
101.284
58.3285
40.4783
1031.72
-60.5312
36.0875
114.653
42.045
34.2125
36.0152
34.0818
29.0119
-654.316
103.738
43.8114
36.0406
76.9753
-128.709
106.178
34.3103
15.7553
25.2352
10.1982
41.9535
156.278
36.1031
36.0548
25.6697
26.7458
75.5055
549.509
592.428
-432.461
-56.7021
573.313
149.222
-148.958
58.0674
25.5494
78.1928
29.0795
-108.849
29.9902
-105.235
34.44
77.346
33.5374
36.1885
34.2152
25.2044
41.8864
45.7964
-337.775
-236.655
75.1908
36.13
32.9066
747.174
31.6275
-65.9849
548.631
361.044
29.2396
57.6367
-145.704
34.5717
38.1734
820.532
33.8265
34.2079
32.9415
336.935
78.4031
38.1134
34.9739
38.4679
44.3663
42.0385
33.0835
336.622
36.0145
567.846
36.0939
-107.233
27.6068
137.655
28.6397
36.8347
30.3293
26.1575
113.331
-102.087
35.882
102.698
36.0745
35.599
102.989
39.9249
-154.16
-445.222
80.3223
41.9439
-262.37
35.7886
35.9797
35.59
42.3668
34.5135
80.582
36.051
155.678
232.188
-52.5716
615.236
38.775
639.426
-242.62
-19.9811
26.0251
32.9302
27.7068
31.8845
35.5526
1326.81
46.7542
14.3989
51.2069
35.9875
-597.211
37.1578
58.6491
36.7038
37.146
105.676
27.9422
66.7531
58.9142
55.6116
33.8272
807.204
31.8739
41.9748
614.542
41.4517
36.1984
79.9618
35.566
554.218
44.4116
819.197
29.116
33.3012
36.9096
31.8195
29.377
36.0542
44.3639
818.061
40.2093
25.3493
-6.509
-379.164
-369.142
47.4822
-14.901
36.1468
-179.533
3.91439
26.0224
36.2602
817.577
35.8769
36.3277
36.8484
444.262
-5.89057
57.8777
15.9984
32.5887
62.3105
31.4813
36.084
-520.056
-617.574
-319.396
35.9995
34.736
36.8423
31.7416
43.11
41.9256
30.5132
-338.394
41.9449
30.2338
35.9597
-18.9946
31.053
27.9338
153.103
32.5945
36.8174
39.8397
29.5184
29.6876
36.1092
33.7501
68.4153
49.1146
113.928
40.6573
100.976
35.8913
33.0938
807.98
34.8081
36.1159
36.0041
11.8171
43.1773
227.705
29.1489
1.97719
42.0648
43.4476
34.2669
44.2947
25.5024
32.928
32.3788
36.0384
25.3238
37.4364
41.3287
35.9027
23.8836
42.0718
-409.85
36.0239
31.9823
103.343
417.944
524.113
41.9987
40.3335
67.8629
37.2653
33.853
617.612
34.9479
44.3243
58.9556
25.137
33.4218
-39.5951
61.1777
36.0801
36.6468
37.2313
59.2601
41.8264
94.7602
28.7629
257.081
24.9993
28.1215
46.8136
62.6219
-383.523
35.9683
25.0714
51.0364
222.172
488.646
34.92
35.3032
36.0635
268.609
-213.015
144.487
103.651
49.8316
41.6608
-291.087
156.412
36.7501
43.1936
36.6923
97.3565
45.05
-57.1344
42.722
1323.2
34.6976
36.1531
48.915
65.2924
62.6539
36.0742
15.0452
542.811
42.0281
34.2603
-61.4614
429.61
36.0455
43.5566
44.2091
33.0548
35.122
83.7099
-109.635
47.547
-100.635
44.4894
30.5026
29.7369
43.713
294.569
34.2806
38.9634
34.0638
35.8738
42.3064
35.8999
32.4355
-241.474
47.9535
512.5
32.4035
33.2883
36.1015
32.8064
797.445
59.8685
44.4467
36.0244
313.058
248.467
48.8405
-68.8937
27.136
44.0684
816.893
-325.723
117.207
39.2984
102.791
36.1169
32.7926
36.772
472.04
37.005
26.1221
51.5831
58.9526
-594.495
89.4454
-335.793
35.5759
35.264
44.6477
41.4212
43.3147
102.731
36.2263
80.2974
24.9987
27.5813
-149.274
44.432
920.543
269.61
423.783
31.3389
43.2731
24.5588
75.2153
-13.9175
44.8549
44.814
76.5485
41.9696
-616.284
33.3984
36.0583
33.7993
-179.912
33.2488
36.193
24.2045
25.8695
27.3291
43.0908
71.7309
37.0913
-314.485
35.6861
36.0319
48.1601
-410.22
790.999
41.9502
41.3212
44.2526
41.4497
36.7642
29.5226
36.1705
395.944
35.8809
42.9437
45.8941
36.0737
36.6505
31.8594
35.4486
29.1708
33.0239
36.8793
36.0749
36.0592
36.1035
46.7205
41.2519
42.3658
213.281
30.3004
-331.413
66.0662
29.1675
70.9583
29.9363
29.5672
86.9224
37.4227
35.4024
-333.531
48.5917
-250.479
818.282
34.6238
35.1609
180.854
35.7022
25.7473
71.0601
-28.1203
299.896
33.0733
31.3721
71.2931
40.9602
254.78
22.8537
32.8161
114.077
46.9826
34.6465
-221.511
38.6695
32.1375
31.558
14.7523
27.3862
9.59605
36.149
34.507
809.372
33.6384
34.8702
36.1327
52.281
40.7793
33.1108
36.963
35.2231
74.0907
37.6103
31.0873
31.7454
36.0981
44.6192
-24.0674
36.0549
33.1479
37.0348
26.398
-9.23919
-101.006
36.7073
36.9606
25.0554
36.0363
40.2152
-89.5619
40.0201
36.6807
36.2334
446.431
94.7847
-410.473
35.4509
32.8887
45.1295
504.232
1119.73
62.8291
-154.085
39.8873
347.177
105.79
42.6327
36.0687
28.0882
42.2284
60.1332
71.6766
35.6096
28.2278
36.0603
-335.911
-442.428
36.8001
-70.5782
102.157
36.0895
117.144
36.0266
71.7635
38.0548
29.6519
36.2066
96.1058
14.1622
11.4388
13.8692
-377.315
-397.516
522.212
34.5989
47.338
-328.905
-275.637
47.1758
-17.4544
36.059
-279.75
104.173
44.7256
31.7383
29.3633
36.0359
39.4039
70.2222
38.9871
18.2084
31.3278
33.3739
101.779
782.515
-250.77
29.4584
38.1161
1330.3
-218.115
36.0194
45.384
35.9173
75.9903
36.2609
33.7172
-14.5194
36.0451
33.5503
33.9527
36.4716
62.6793
48.8265
29.5482
-186.59
-399.239
33.5727
36.2818
-220.684
29.3136
36.1228
43.3689
192.7
36.0342
35.7614
42.2082
50.4896
37.264
36.0561
11.3172
32.4817
36.9279
27.9795
-104.429
42.3664
33.9207
71.9554
36.0616
33.2208
36.0502
45.9564
38.7559
33.6956
-164.304
809.534
29.0497
73.6884
34.7188
32.5101
32.6231
36.1632
37.1113
35.9433
-74.3939
40.0295
34.4967
47.0792
51.425
31.3089
29.3451
25.3623
36.0661
33.6643
36.6932
36.8971
30.7765
-178.622
58.5236
313.474
36.4267
43.9265
36.015
40.2137
42.2395
759.291
33.6121
-21.6844
36.09
-223.314
56.46
558.407
35.9983
32.74
34.9617
98.0853
71.2255
25.5129
-183.593
33.8107
39.512
33.7578
131.703
36.1351
35.9335
-6.41823
34.1775
51.6433
42.6304
36.0884
-126.106
43.986
34.0638
43.7448
29.3095
44.6019
-550.427
114.921
36.0367
23.7534
41.9709
220.068
37.5841
47.6789
41.0163
36.0124
-19.1101
36.2241
45.798
30.0773
45.4035
36.0272
36.1424
40.9954
157.957
30.5159
28.4575
556.73
26.5472
52.7997
108.001
37.5882
32.0223
32.8967
36.1913
38.7735
24.7859
37.1331
34.6617
-325.165
39.0553
45.1551
24.8959
38.6085
42.1395
33.4089
28.8603
-100.909
101.373
43.0445
-297.285
32.7196
-429.717
-19.2663
115.196
239.15
59.8159
36.8212
37.2322
36.1332
46.7737
35.9566
-244.483
-356.441
46.3099
881.633
30.509
41.695
33.6246
37.1059
814.904
67.3165
31.9612
30.8856
75.9331
-182.572
-135.875
36.192
39.2879
24.7809
36.1495
-392.849
25.8357
112.594
58.635
31.6007
57.6879
35.9756
36.2092
25.5163
33.5333
31.1621
41.3504
36.0545
30.6973
37.0926
36.0048
36.0637
38.8923
39.9006
42.0183
109.394
24.9399
36.4033
56.9787
36.0593
1312.81
33.9045
42.3912
51.3111
-9.59591
28.1275
36.1593
42.4891
767.133
64.4728
92.9807
35.6691
24.3216
-243.239
123.516
67.6314
-6.53107
29.0527
48.6019
119.317
36.0908
33.3233
29.9473
60.5762
70.1119
36.0405
33.8311
-77.5527
32.5818
67.5345
72.1008
43.4353
36.0469
92.6298
-486.688
-75.4651
44.6566
40.7013
36.1595
15.1194
14.5289
39.8283
33.2284
31.074
61.0615
45.8458
25.6817
-186.496
42.3579
36.8267
62.9404
44.565
-61.996
35.8975
-11.0372
41.9985
34.9893
-247.706
36.1073
46.7828
44.4669
23.8519
-32.432
325.549
36.5779
42.4312
36.1333
19.8223
1321.22
65.7868
35.974
-294.18
26.486
35.8987
30.8201
30.5712
809.032
41.9502
1307.69
37.0846
35.8999
22.045
37.2298
62.3443
61.5158
31.898
134.071
155.238
795.43
45.1151
71.4123
14.5626
50.0219
24.7771
35.2209
30.47
274.483
36.1316
28.0533
-9.68611
65.5224
44.9716
39.2967
65.518
28.6597
36.5315
50.4536
-434.56
-147.522
45.4491
28.8553
556.686
110.811
-185.05
-68.2627
-10.3948
35.5797
36.2615
29.4595
-389.41
41.9543
49.9656
48.0076
72.0879
36.9831
23.9981
-113.98
36.0055
31.6375
45.6707
-365.268
-8.46497
-219.913
-539.09
36.1039
29.1761
33.6066
30.788
-372.075
-109.68
38.8765
36.41
36.3127
36.3858
23.7999
209.116
35.8068
-295.912
51.1433
215.675
40.7802
33.8493
34.0852
73.1702
-217.75
28.6528
-26.0088
36.0297
36.0231
33.4296
46.6373
-48.087
-25.5288
86.2423
35.9282
47.2707
34.5732
37.181
36.0782
34.4512
87.3615
41.726
25.868
186.431
24.4975
31.2042
32.1548
42.9336
35.5888
30.954
36.0869
-70.3847
36.2517
28.1338
-352.721
1169.36
73.8876
36.1095
33.6511
25.6974
39.2296
-647.76
33.3759
30.4093
101.441
37.1963
27.0099
31.0334
32.6256
-373.181
43.189
48.4718
36.139
27.2437
29.5907
74.2558
34.6803
166.746
36.0344
44.5532
37.3188
-171.164
-0.634118
43.5274
101.868
44.7352
746.02
37.175
-420.941
34.1039
33.5072
41.8779
23.6087
25.98
35.6676
45.5754
362.579
39.5128
45.0105
34.8531
36.1371
35.9928
571.969
36.7691
39.2593
76.3707
26.1874
806.612
36.3372
48.298
36.0432
48.5361
36.1712
31.06
95.9189
49.0254
26.4177
40.9344
30.1878
31.5951
-292.146
44.6566
45.4224
40.9825
36.2249
41.8507
49.6558
432.183
58.7509
-5.7805
36.0232
34.609
85.6614
26.2486
180.189
37.1346
-403.179
119.839
793.401
36.1489
36.3934
26.5888
-211.503
36.0835
68.0539
41.0178
30.3333
70.4276
29.2262
41.9421
32.8974
44.5366
42.5657
47.8786
-444.92
40.3627
64.071
42.0278
36.0402
36.3182
42.556
-108.386
45.9029
1293.45
-13.1
33.705
36.0924
-480.431
695.751
40.7032
41.9576
36.4219
50.652
57.3952
25.2655
198.514
36.0344
45.5019
-251.55
36.6198
32.4381
32.9164
37.033
32.8404
36.1544
29.6919
-5.55005
65.1247
155.187
44.8148
27.8367
45.6447
109.395
126.522
43.9099
45.8279
806.183
41.9327
30.8366
20.1705
-511.583
47.5507
44.2489
39.3103
26.1445
-308.814
34.5238
45.4986
-203.33
-314.314
36.2063
36.2973
33.7081
51.4921
37.7578
-206.499
36.7691
131.718
35.9196
49.8183
33.7558
-85.0916
36.0474
175.562
68.8989
87.8204
-265.426
-198.704
62.3134
36.0369
109.759
-93.6969
39.4151
46.8469
35.8025
28.9854
38.4031
36.7723
35.5226
72.3732
30.8869
26.8989
32.6096
30.3726
29.7327
42.6636
802.264
36.2919
196.918
466.663
31.6841
36.0993
30.4344
43.7123
31.2604
88.1925
64.8305
50.4578
34.7961
41.9537
25.682
112.543
37.2107
40.2666
31.4975
38.8115
34.0487
27.6012
45.3399
31.4003
29.0804
-327.064
44.3998
34.8517
99.2841
37.412
27.4012
36.9118
61.1098
30.0816
48.8386
-302.719
36.11
63.1598
-333.458
33.7916
26.2281
23.9919
44.835
34.7891
51.0346
17.7493
36.0349
-271.131
45.4153
32.8097
-77.224
248.802
-369.365
47.9194
34.4552
342.385
87.1924
33.5348
36.1136
45.0776
143.497
50.8848
36.6567
41.0224
37.9708
30.0123
43.4432
32.4668
39.4772
-176.641
326.899
42.4528
46.7441
43.6043
37.0741
36.5704
46.1448
50.446
30.4064
63.0839
93.5578
36.1542
249.547
-584.674
1284.76
-334.763
29.1496
-152.337
98.2666
-150.119
36.2035
-362.09
45.0282
83.8045
52.771
41.1387
-299.432
28.5278
468.628
-65.738
29.0431
36.9174
27.1067
-145.832
50.1789
136.765
36.0939
1258.73
45.1918
-262.168
32.6791
30.5503
36.8535
420.368
35.1417
37.0672
1332.93
34.773
-479.241
35.985
38.3862
-73.8018
29.4385
39.5267
-175.695
30.1072
36.0707
-51.8299
50.9961
45.8436
24.3422
32.6646
-191.853
-289.224
36.7552
116.781
42.6996
-67.0814
50.5289
49.198
36.0546
-74.5908
25.1166
57.2763
36.0328
451.49
33.0205
-68.2635
259.409
28.9083
36.1088
-185.574
36.0555
36.042
36.1246
195.891
-83.0799
35.1651
74.0986
34.0391
36.8062
15.5574
36.0701
36.3322
-311.162
51.7012
38.8255
49.4433
35.521
41.1661
51.6529
0.541643
-210.44
34.8578
44.514
36.0091
-275.782
403.37
36.5954
38.5511
26.7468
80.0676
-2.35961
22.9708
-323.595
33.3555
-94.829
132.06
36.9859
29.1762
44.5603
51.7268
33.6527
36.0392
33.0358
27.0084
-158.392
36.0374
65.3503
34.1746
427.306
44.3549
17.3347
28.525
1328.51
-359.531
33.5907
29.6163
36.0654
36.0957
37.0117
-314.998
-321.484
45.7553
44.2801
43.1085
36.121
37.4226
35.9913
125.891
-95.521
185.442
80.4483
36.1396
33.2913
-212.162
43.0595
-391.912
36.1504
34.578
30.6699
41.5106
36.1361
43.2494
34.6003
28.8471
92.6045
-234.083
44.166
28.0826
12.9732
78.3164
36.5518
91.6576
-336.884
-24.2593
35.9118
271.803
34.1928
44.3022
46.5409
34.3889
41.4549
36.2423
85.0725
51.5331
29.2475
1332.87
32.1922
-218.474
679.735
42.0076
15.8793
41.9269
27.2829
-70.6566
30.9364
-292.352
25.2636
44.7506
29.3773
36.0678
25.4383
36.0551
36.0305
44.3458
33.5821
38.0688
-73.1728
51.9928
86.606
37.1497
36.0903
45.8687
29.8537
36.0102
75.7131
-191.402
39.8579
-168.815
45.6071
192.433
34.5696
36.1066
37.6413
32.8736
-307.171
41.777
36.0641
68.0204
34.4709
42.8973
44.5247
42.6644
36.1259
30.6274
35.8114
36.0996
80.5391
34.9538
45.6343
35.86
70.1976
36.0874
-180.799
-355.07
45.4995
63.0695
36.1072
36.1563
103.242
50.0433
39.2089
36.0759
-142.429
31.4016
36.0704
33.2188
22.4916
101.459
32.709
36.05
-347.319
46.6714
58.8774
-221.764
35.5585
27.6172
375.422
44.1584
-113.713
44.4923
37.0435
36.2847
36.9738
72.1375
-386.439
34.6693
43.9885
28.2994
36.0744
36.0531
44.4852
29.488
14.6387
33.1527
33.5169
45.0202
36.0376
32.9203
35.9596
30.0006
46.6701
100.34
-140.511
33.8354
-238.452
33.3583
66.3583
442.52
1312.73
-231.349
48.4578
36.1247
-103.704
40.8814
41.6946
-385.471
37.2809
64.5408
-259.998
-272.381
41.3488
797.551
32.447
-118.619
33.3752
42.1094
68.233
26.8071
58.6063
36.0663
41.8619
33.4227
38.5178
33.5518
30.8676
44.4595
-359.414
24.9658
-242.499
29.1916
102.616
36.0024
42.0344
29.1033
45.1338
-82.4705
-228.935
1.5931
32.6658
-122.939
108.465
49.2281
1318.64
26.5316
36.2079
-10.5859
-101.337
42.5329
30.5524
33.2927
70.2475
38.365
37.5609
125.273
-22.6367
29.2289
135.685
-65.262
28.7878
27.2852
25.2775
31.5193
1.43761
30.9
44.5146
38.4461
100.774
34.0401
21.4363
-206.184
33.8787
29.4601
98.2573
44.797
581.53
34.8646
2.32839
36.0625
35.3997
37.2039
43.6613
35.7959
40.1903
42.0024
33.2091
46.0076
-254.645
-10.0537
36.5832
12.7606
33.561
36.424
36.0388
42.0015
37.2004
36.1583
38.0479
-17.6804
-182.613
31.7007
748.491
49.2948
36.1099
190.506
37.2333
27.5306
36.0649
35.215
34.0113
799.246
41.9897
41.9919
33.6761
27.0608
29.5278
30.467
31.6375
13.5925
33.6395
37.2776
39.7959
58.2546
41.5481
34.1484
35.7955
26.7288
35.6726
43.2053
37.2313
37.4414
24.7161
-141.318
-218.1
30.1346
42.6838
24.3468
-78.4464
-335.743
32.4826
37.785
29.8231
37.4959
33.4924
29.8242
-323.378
28.2824
36.6278
36.0352
36.11
30.4359
-201.85
32.9364
37.6195
35.0392
41.5788
-285.47
44.5133
50.8982
47.6451
32.8284
28.7216
36.2778
-174.934
28.5233
36.0427
115.214
12.1054
30.4858
37.0811
36.0463
47.3662
96.251
145.937
35.2167
334.208
44.6132
38.8868
100.611
-359.653
33.902
35.828
25.0929
31.206
42.3525
32.8751
-294.413
37.593
48.6401
39.4485
41.9512
58.8447
44.6749
44.6958
42.077
-293.267
42.1105
32.9369
33.3353
49.292
41.5963
33.5409
-96.2193
25.1368
30.8749
45.756
44.5617
42.8855
45.675
36.0684
36.6191
-25.0925
41.9831
33.6897
49.5837
62.9194
36.0169
30.7125
42.1084
168.678
33.9712
49.7512
36.0353
45.051
36.1025
36.0717
44.0578
364.286
36.1681
32.7648
49.4306
42.0996
99.4307
36.5019
34.6654
71.0085
-18.6377
33.3722
-268.415
43.6034
63.4051
36.1939
-56.1853
41.426
-7.23614
36.2884
-100.741
25.9417
12.6753
802.582
693.684
34.1448
87.8257
35.0893
31.1453
35.7792
-123.62
43.793
31.5383
73.0322
780.718
-398.741
36.9736
98.2885
31.0776
36.0695
34.0637
31.9589
43.689
39.7094
40.4529
41.0358
43.9755
38.9316
36.0962
20.8238
36.9635
45.0319
558.314
30.6769
32.4527
33.4789
-118.199
45.4639
43.9723
68.4813
36.0559
70.7091
24.4655
35.3589
24.5317
368.512
35.8521
36.1059
38.8928
33.5908
36.0816
39.5154
-115.203
32.945
-42.0162
29.1795
30.1836
-190.1
28.325
29.0305
41.9113
32.5283
36.0124
33.0043
-290.071
-525.499
37.272
36.0494
35.9252
28.4474
32.6455
23.889
34.2145
30.1805
50.191
51.6103
3.35861
31.3829
-85.3781
59.3098
36.1646
32.9335
45.3215
31.6214
32.1121
36.9754
36.9353
33.3219
36.0636
36.0718
28.9876
87.4018
71.7678
-316.594
110.541
36.0772
33.0479
22.1248
32.7033
31.6763
293.605
44.1636
778.424
66.3342
812.845
42.0174
32.8519
38.1215
42.2604
-141.262
39.8125
-151.869
46.4943
47.4207
29.2885
721.972
46.7871
36.3671
39.2676
49.4835
36.0795
36.0448
30.651
92.8691
36.0505
35.0845
598.399
42.3142
70.9488
49.7795
36.0068
44.0009
-306.955
36.0934
35.8608
37.1795
38.6414
29.3751
36.0192
-50.4159
28.5269
35.8672
36.1366
35.3459
84.651
29.1832
32.2139
34.4308
-98.2239
30.1449
40.5534
42.0303
-349.727
10.2388
42.4069
29.3705
36.0481
36.0067
32.49
-209.344
26.9249
41.4027
28.1207
18.9786
71.9426
-60.7521
731.824
30.3239
45.8634
121.422
29.9657
37.2335
36.1929
36.1179
1294.33
118.47
36.0863
19.5646
47.4163
1.88215
86.8749
-194.271
45.139
-257.415
60.5268
29.386
44.7962
30.3384
-17.7369
30.0498
41.4937
28.6897
32.6532
540.611
44.0039
21.388
75.3326
-62.9022
30.1782
58.5031
28.7226
73.7599
-81.4723
36.2213
31.2261
36.0401
45.1764
36.0127
23.15
42.4153
35.9525
54.9842
32.6715
34.0562
25.4876
36.0739
49.2071
50.1248
97.8208
29.1207
43.6204
35.5706
41.9599
36.0389
-93.9106
258.982
-165.236
36.0401
35.0463
36.0938
-277.262
28.676
29.6981
36.1138
134.443
36.0144
162.768
-286.749
36.1177
45.4829
31.7461
59.8349
37.7435
49.2601
81.313
36.5264
37.1964
374.543
36.0364
23.3736
36.9167
43.558
35.285
45.3015
794.512
44.2154
-3.96571
38.4784
36.0973
43.0672
44.8145
40.2822
31.6804
44.7819
4.26675
36.0265
33.6032
45.2749
110.202
43.2789
43.3878
36.9388
93.0157
36.0574
140.584
6.86527
42.9346
58.9185
24.8922
56.5596
1266.56
8.02237
36.6783
32.2979
702.034
441.782
745.548
9.40088
43.3456
36.0454
41.3171
29.0012
50.0776
36.327
36.12
33.6211
41.9493
1221.38
41.9541
70.1338
42.8669
36.0054
98.4425
35.9863
-8.05058
29.1481
33.4387
35.8036
35.5329
37.0787
34.6636
37.0358
29.5983
36.017
28.6491
130.892
97.2206
36.4449
29.075
-75.8116
93.6153
-267.927
-137.546
-232.592
36.6937
36.0489
36.0478
31.6877
61.2391
164.162
33.7062
40.0743
29.474
45.3407
4.72476
36.0754
0.348584
38.1092
31.309
35.9764
-37.9931
36.0118
477.788
617.667
29.2268
23.6861
42.2894
45.0213
30.4953
34.6882
22.8791
44.4729
42.2876
33.5952
43.8581
29.2988
-144.879
23.6501
43.4482
71.5908
70.355
-283.504
24.3126
41.9088
166.134
50.0322
36.9822
59.8205
44.3047
43.6443
36.6788
96.7052
203.756
36.0376
43.2649
38.9685
152.486
36.0248
75.3912
56.9211
1330.74
-22.1278
-17.2266
73.4801
88.9307
12.0098
2.78507
305.841
1330.53
-89.4405
194.032
39.1634
95.5407
43.7348
96.5306
35.9769
152.649
34.4509
36.0394
-444.175
18.825
-544.214
66.7558
62.5229
46.576
36.0711
36.375
31.2134
32.8548
37.4078
34.2047
29.5006
33.3241
42.0118
35.5089
42.9128
36.0289
-138.005
33.4761
47.203
86.1729
48.9415
24.3287
44.6307
76.0427
72.3914
59.6273
64.0929
-267.546
91.1924
40.1021
42.2778
43.5897
36.5012
36.0271
35.8404
36.0449
36.0639
108.974
476.785
35.9254
253.069
41.9792
46.6121
47.0689
43.3258
29.6962
51.6113
41.9422