/*--------------------------------*- C++ -*----------------------------------*\
  =========                 |
  \\      /  F ield         | OpenFOAM: The Open Source CFD Toolbox
   \\    /   O peration     | Website:  https://openfoam.org
    \\  /    A nd           | Version:  10
     \\/     M anipulation  |
\*---------------------------------------------------------------------------*/
FoamFile
{
    format      ascii;
    class       surfaceScalarField;
    location    "100";
    object      phi;
}
// * * * * * * * * * * * * * * * * * * * * * * * * * * * * * * * * * * * * * //

dimensions      [0 3 -1 0 0 0 0];

internalField   nonuniform List<scalar> 
16133
(
1.11945
-0.0998646
0.0212867
-1.04354
-1.04972
0.176703
-0.225698
1.09869
-0.431372
-0.790057
0.668501
0.552922
-0.1278
0.0676992
-1.44896
1.50908
-0.329746
0.00833097
1.75536
-1.43392
1.91305
0.293865
-2.38793
0.18105
-1.00111
0.158391
0.598619
0.244097
-0.142481
-1.02772
0.380567
0.789584
-0.888332
1.21878
0.833037
-1.16356
-0.126153
1.44381
0.194392
-1.51199
1.20577
-1.15015
0.224645
-0.280277
1.44337
-0.535571
0.493387
-1.40114
-0.264381
-1.28211
0.737647
0.808845
0.856881
-0.767595
-0.0806504
-0.00841361
0.93202
-0.0591716
-0.0159312
-0.281039
0.231234
-1.20993
1.2597
-0.0133376
-0.126853
-0.627279
-2.23596
0.0246221
1.63948
0.571938
-2.39209
1.90346
-0.399685
-0.114565
1.19748
0.0365436
-0.313396
0.838286
-0.75317
0.22825
-0.18325
-1.42883
1.48427
-1.27405
1.30206
-0.309031
2.84144
-2.18402
0.0766468
-0.734023
-1.32949
1.51388
-0.310497
-0.0104867
0.0260455
-0.0332349
0.01767
-0.0234154
0.000937954
0.0142362
0.00823882
0.103093
-0.706378
0.612006
-0.00872515
-0.0289306
0.0504189
-0.0728947
0.0514054
-1.43707
0.644986
0.857112
-0.447122
-1.43903
1.02906
-0.281137
0.308685
1.17822
0.311851
-1.10045
0.646087
0.031677
0.222685
-0.0839594
-0.170401
-0.948071
-1.19637
1.1272
1.01706
-0.864591
0.191544
0.904663
-0.231648
-0.662183
-1.62568
1.33977
0.00641042
0.00694045
0.00525103
-0.0186132
0.0694298
0.0695369
-0.0366358
-0.102332
-2.24794
0.467191
-0.611546
-1.66563
0.422983
-1.03051
-0.401972
-0.575857
0.216815
-0.194241
0.553125
-0.0493526
1.34433
-0.0317737
-1.26321
1.42079
-0.437
-1.64597
1.31012
-0.716786
-0.0793592
0.326771
-0.32964
0.00405131
0.355891
-0.0303436
0.971105
0.571921
-0.324224
1.50619
-1.4378
-0.251631
-0.469515
-0.871646
-1.59871
1.87815
-1.31457
1.03517
0.104422
0.0720696
-0.107059
-0.0336181
0.0503296
0.0667469
-0.0834591
-0.0268781
0.0357462
0.0606678
-0.042467
-0.0209085
0.0344437
1.52466
-0.660639
-2.48976
0.0192181
0.0153351
-0.00728332
-0.0272789
-0.565078
0.78508
-0.025342
-0.194568
1.63835
0.0692866
0.0438711
-0.00873623
0.161701
-0.969961
-0.241482
-0.0359466
-0.0538036
0.0564055
0.0333335
0.818148
-1.43841
1.2591
-0.638806
0.483314
-0.336591
-1.30237
0.830709
-0.318385
-0.448173
0.0937537
-0.210665
0.128694
0.0509757
-0.116795
-0.0628823
0.464242
0.754607
-1.73741
0.260623
-0.707269
0.0355823
0.0035308
-0.0727319
0.00642149
0.0330651
-0.0175648
-0.0219208
-0.685973
-0.000461491
1.00805
-0.321782
0.39823
-0.856338
-0.844237
-0.0847807
-0.0671071
1.08391
-0.193993
-0.701529
0.211
0.68407
-1.83318
0.722529
-0.626791
-0.753125
0.342439
0.569079
-0.769509
0.605644
0.475648
0.978072
-0.954802
-0.108026
1.67139
-1.56725
0.258333
-0.362444
1.06832
-1.00052
0.0961695
-0.163959
0.0899088
0.0924648
-0.110302
0.0580507
0.0896108
-0.0973325
1.90352
0.204591
-0.436704
-0.186202
0.100896
0.933469
-0.848191
1.02934
-0.945252
-0.134929
0.0508271
1.31292
-1.22783
-0.134465
0.743107
-0.519698
-0.0661096
-0.157313
1.09537
-0.131361
0.0653225
1.4172
0.0571289
-0.161405
1.7005
-0.215613
1.13424
-0.165783
0.867045
-0.0880977
-0.0358526
1.16681
-0.0959068
0.0244512
-0.247158
-0.803643
0.54215
1.3933
-0.234957
0.877297
-0.0726403
-0.871806
0.74622
0.234083
-0.195091
-1.24972
1.36425
-0.290557
0.176032
0.528019
-0.170429
1.51941
-1.47148
0.390051
-0.437943
0.0226901
-0.0954699
0.034452
0.293919
1.62531
-0.399818
-0.0475038
1.19056
-0.170887
0.239219
-0.300269
-0.111285
2.53455
-0.519733
0.956968
0.140867
-0.11976
0.134883
-1.35097
-0.221717
-1.38309
-0.418117
-0.958249
0.11588
-0.15814
0.140621
-0.141901
0.150673
-0.858256
-1.34145
-0.257694
1.29505
0.326848
0.990071
-1.18438
-0.194549
1.24445
-1.35854
-0.157619
1.25845
0.703744
0.797025
-0.205728
0.640838
-0.523335
-0.311724
1.03736
-0.178665
-0.896559
0.758678
0.37782
-0.239991
-1.14562
1.17016
0.29381
-0.318343
0.00865381
0.0702612
-0.0194168
-0.0594971
-0.255805
0.710858
0.216187
-0.2864
1.74755
-1.41237
0.0218495
-0.015154
0.00519694
-0.0118931
0.063879
-0.249687
-1.1202
-0.306555
-0.991465
-0.893331
-0.120574
-0.0106504
-0.0150934
0.0321615
-0.11718
0.109035
0.148665
-0.140523
-0.766877
0.794766
-0.275072
-0.206019
1.48014
-1.10315
-1.25139
-0.121833
0.0476614
-0.10157
-1.17249
1.59262
0.132462
-0.162109
-0.41852
-0.293788
0.837294
-1.70184
1.15838
1.51747
0.893214
-0.89395
0.0571687
-0.0567059
0.246134
-0.254335
0.507938
-1.28849
-0.168133
0.735123
-0.580431
1.13484
0.491714
-1.92028
-0.250141
0.0223651
-0.101865
-0.412297
-1.89433
1.1201
-1.03349
1.37045
0.601718
1.62469
0.54734
-0.0132441
-0.0365881
0.174136
-0.124303
1.25462
0.255638
-0.340091
0.0333389
-1.04655
0.246007
1.09886
-0.298326
2.03191
0.453116
-0.821787
-1.66322
-0.818793
-0.155092
-1.30769
1.40075
1.69283
-1.66672
-0.137337
0.323353
0.90141
1.2858
1.16549
-0.855442
0.735472
-0.980591
-1.44007
-0.0979374
1.38041
-1.34018
0.938673
-0.624732
1.02628
-1.41192
-1.72833
-0.243997
-1.05214
0.117654
-0.476912
-0.326719
0.00787226
-0.0133572
0.00680559
-0.00132175
0.248236
0.57231
1.4977
-1.4758
0.46988
-0.972497
-0.299759
-0.243973
-0.310421
0.236753
-0.286428
0.360033
-1.27212
-0.200678
-0.143235
0.123632
0.0700208
-1.83164
-0.048345
-1.03
0.553115
0.117973
-0.0400333
-0.572281
-0.63881
0.801517
-0.915832
0.952938
1.19247
1.10293
1.15612
-0.894668
0.106998
0.0997099
-0.116801
0.014643
-0.00344158
0.854232
-0.291132
0.249415
-0.377867
0.665353
-0.839927
-0.67121
0.713901
-0.732768
-0.203528
-0.148779
0.613129
0.785263
0.0250722
0.0443917
-0.0630669
-0.895996
0.734703
0.0512287
-0.151089
0.275421
-0.853598
1.18394
-0.179679
-0.21574
-0.0615345
0.0986669
-0.073075
1.56007
-0.263945
0.149178
-0.135363
0.669784
0.638813
1.54742
-0.0327813
0.0172318
-0.103986
0.830569
0.119519
0.922515
0.17727
-0.0663782
-0.150224
0.0393339
-0.0211418
0.0106498
-0.199341
0.0324362
-0.125415
-0.0502548
0.390936
-0.494918
0.340746
0.300357
0.0586106
-0.226491
0.249854
0.621571
-0.623232
-0.0540381
-0.0380312
0.0687958
0.0232697
0.74884
0.03105
-0.0456203
0.0145652
-0.651735
-0.238353
1.24775
-1.65159
0.284035
0.616059
0.125044
-0.16715
-0.244332
-0.978286
0.00990749
0.417672
-1.85883
0.0249963
-0.0210354
-0.0168037
0.0128385
-0.00226125
-1.99547
-0.0297458
-0.0239373
-0.000349141
-1.50618
-0.22862
-0.742949
1.52804
-1.18109
-0.0665609
-0.0507401
0.0792717
0.0969266
-0.196736
0.27709
-0.0263463
-0.054679
0.0385575
-0.311099
0.798987
-0.761038
0.69939
0.359929
-0.393964
0.0101931
-0.0169924
0.00679897
-0.911628
-0.302363
0.0173338
-0.0310251
0.0136906
0.868931
-1.29484
0.0373762
0.486896
-0.304286
0.390098
0.0140262
0.00330743
0.220067
-0.18026
-0.106636
0.173384
0.188991
0.0566002
0.981801
-0.395205
0.0224447
1.23361
0.0954559
-0.0963026
0.107842
-0.0523881
0.194845
-0.411799
0.503534
-0.731653
-0.230892
0.867799
-0.464016
1.11014
0.0017283
0.00892307
0.158064
-1.23689
0.64802
-0.347836
-0.716228
0.217952
0.241947
0.226679
-0.61591
0.948223
-0.1204
-0.0760879
0.130108
1.8765
-0.0724949
0.0523062
0.1185
-0.112757
-0.16434
0.228456
-0.301616
0.160697
-0.0985925
-0.109131
0.0260008
0.0365718
-0.0625725
0.0344356
-1.16094
1.24001
-0.187243
0.155046
0.199619
-0.54935
0.00315657
0.00703695
-0.436195
-1.65121
-0.0803405
0.0464799
0.13348
-0.127652
-0.183126
-0.0652727
0.0343645
-0.301374
-0.0507985
-1.47
-0.674267
-0.00502468
0.162689
0.00109461
-0.19444
-0.257129
0.00497084
-0.0378176
-0.0209612
0.105535
0.11847
-0.124296
-0.197128
-0.824066
-1.0097
-0.00505916
0.00678969
0.195115
-0.566954
-0.0243152
0.63549
0.0966272
-0.0360482
0.074494
0.111172
-0.139188
0.296687
-0.00674223
0.0558633
0.0277689
-0.040425
-0.0101678
0.00720129
-0.169914
0.231655
-0.145703
-0.0166049
0.00640143
-0.0121831
0.00712557
-0.00571521
0.0125209
-0.0248673
-0.0205612
-0.00345383
0.00721127
-0.132046
0.714105
-0.570368
0.461848
0.0496843
-0.145103
0.0134581
0.238822
-0.179974
-0.235175
0.414943
0.28428
-0.578485
-0.270053
-0.0302347
0.0423023
-0.0404054
0.00954443
-0.0427462
-0.0213959
0.0115888
-0.0214098
0.00861624
-0.0207976
0.0442027
0.00569594
0.800531
0.00756552
-0.0242391
-0.56732
0.290399
-0.786996
-0.2417
0.0424054
-0.000881938
0.0143396
0.0232842
-0.00720777
-0.0473208
0.00265701
0.010886
0.297659
-0.371016
-0.44936
0.40715
-0.116715
-0.458965
-0.30544
-0.0845923
-0.0350779
-0.369379
-0.0285149
0.018097
-0.0408721
-0.0190422
0.0217613
-0.163736
-0.00186661
0.0113145
0.0309353
0.792285
0.0109554
0.0202491
-0.0307824
-0.222924
0.852733
0.75827
-0.339947
-0.300736
-0.148878
-0.218277
-0.0110745
0.165541
-0.15447
-0.021207
0.178064
-0.167932
-0.0289562
0.182834
-0.175085
-0.035584
0.182898
-0.176269
-0.041458
0.183165
-0.177292
-0.0473407
0.184057
-0.178174
-0.0537677
0.185063
-0.178631
-0.0607548
0.186259
-0.179275
0.187433
-0.180114
-0.0680722
-0.0112736
0.176811
-0.0185875
0.185375
-0.0249021
0.189148
-0.0306027
0.188598
-0.0358811
0.188442
-0.0410471
0.189222
-0.0466499
0.190665
-0.0529649
0.192583
0.194633
-0.0601572
-0.0090923
0.1859
-0.0149124
0.191194
-0.0203691
0.194604
-0.0255067
0.193735
-0.0304287
0.193364
-0.0352553
0.194048
-0.04043
0.195843
-0.0463457
0.198502
0.201609
-0.0533068
-0.00628081
0.192179
-0.0108249
0.195736
-0.0157802
0.199559
-0.020694
0.198648
-0.0255261
0.198195
-0.030224
0.198746
-0.0350932
0.200712
-0.0404876
0.203908
0.207952
-0.0468166
-0.00359837
0.195775
-0.00724932
0.199386
-0.0119854
0.204293
-0.0169006
0.203563
-0.0217163
0.20301
-0.0262557
0.203285
-0.030722
0.20518
-0.0353519
0.208546
0.213057
-0.0404377
-0.00185643
0.197631
-0.0051776
0.202705
-0.00976877
0.208883
-0.0146219
0.208415
-0.0192251
0.207613
-0.0233706
0.20743
-0.0271828
0.208994
-0.0308121
0.212181
0.216683
-0.0344323
-0.001306
0.198936
-0.00470898
0.206107
-0.00896178
0.213135
-0.0134726
0.212925
-0.017596
0.211736
-0.0211445
0.210978
-0.0241792
0.212029
-0.026777
0.214782
0.21897
-0.029061
-0.00146113
0.200397
-0.00492221
0.209567
-0.00849544
0.216706
-0.0122664
0.216695
-0.0157119
0.21518
-0.0186469
0.213913
-0.0209902
0.214374
-0.0227616
0.216554
0.220207
-0.0239967
-0.00206389
0.202461
-0.00495507
0.212458
-0.00734007
0.219091
-0.00991251
0.219267
-0.0123899
0.217657
-0.0145885
0.216111
-0.0163052
0.216091
-0.0174556
0.217707
0.220789
-0.0180365
-0.00256312
0.205022
-0.00409917
0.213993
-0.0048434
0.219835
-0.00591577
0.220338
-0.00715086
0.218892
-0.00843507
0.217395
-0.00946642
0.217123
-0.010079
0.21832
0.22083
-0.0101181
-0.00182167
0.206845
-0.00156589
0.213738
-0.000739479
0.219008
-0.00033428
0.219933
-0.00035376
0.218912
-0.000708567
0.21775
-0.00106552
0.21748
-0.00117992
0.218435
0.220466
-0.000815643
0.000552952
0.206291
0.00276911
0.211521
0.00496263
0.216815
0.00649226
0.218403
0.00737994
0.218024
0.00780481
0.217325
0.00803172
0.217253
0.00835915
0.218108
0.21981
0.0090155
0.00420333
0.202092
0.00818985
0.207535
0.011548
0.213457
0.013861
0.216091
0.01543
0.216455
0.0164637
0.216292
0.0172061
0.216511
0.0179208
0.217393
0.218838
0.0188919
0.00791308
0.194179
0.0138665
0.201583
0.0183244
0.208999
0.0212454
0.21317
0.0233291
0.214371
0.0248721
0.214748
0.0260832
0.2153
0.0271729
0.216303
0.217623
0.028388
0.010759
0.183424
0.0188015
0.193541
0.024457
0.203344
0.0280627
0.209565
0.0306784
0.211755
0.0327683
0.212658
0.0345105
0.213557
0.0360111
0.214802
0.21619
0.0374437
0.0131045
0.17032
0.0225233
0.184124
0.0292579
0.19661
0.033778
0.205045
0.0371653
0.208368
0.0399607
0.209862
0.042385
0.211133
0.0444606
0.212726
0.21442
0.0462305
0.0152704
0.155047
0.0248628
0.17453
0.032247
0.189227
0.0377946
0.199498
0.0423399
0.203822
0.0461699
0.20603
0.0494987
0.207804
0.0523519
0.209873
0.212072
0.0547012
0.0164395
0.138607
0.025289
0.165681
0.0329294
0.181587
0.0394651
0.192962
0.0455184
0.197766
0.050855
0.200693
0.0554179
0.203238
0.0592375
0.206055
0.208991
0.0623192
0.0146556
0.123947
0.0227626
0.157574
0.0306857
0.173665
0.0383527
0.185295
0.0461285
0.189988
0.0534368
0.19338
0.0597072
0.196968
0.0648133
0.200949
0.204851
0.0689549
0.00884797
0.115097
0.0169492
0.149473
0.0255772
0.165039
0.0348647
0.176008
0.0444536
0.180398
0.0538153
0.184016
0.0621916
0.188592
0.0690535
0.194088
0.199296
0.0746109
-0.000474266
0.115572
0.00874264
0.140256
0.0189696
0.154813
0.0305276
0.164452
0.0419661
0.168957
0.0530145
0.172966
0.0633448
0.17826
0.0723706
0.185063
0.191731
0.0799379
-0.00802477
0.123594
0.00180517
0.130426
0.0141037
0.142517
0.0276834
0.150873
0.0407583
0.155883
0.0529883
0.160735
0.0645302
0.166717
0.0753259
0.17427
0.181974
0.085086
-0.00582
0.129415
0.00299998
0.121606
0.015782
0.129736
0.0301501
0.136509
0.0437029
0.142331
0.0562857
0.148152
0.0681186
0.154884
0.0795042
0.162883
0.171203
0.0902772
0.00507969
0.124334
0.0136023
0.113082
0.0249409
0.1184
0.0385096
0.122943
0.0516133
0.129228
0.0638651
0.1359
0.0755109
0.143236
0.0868106
0.151583
0.16044
0.0975735
0.0152026
0.0259529
0.0372951
0.0499366
0.0623639
0.073967
0.0851559
0.0962152
0.107777
-0.19485
-0.0024098
0.197257
-0.19207
-0.00278541
-0.189003
-0.0030644
-0.185725
-0.00327466
-0.182311
-0.00342812
-0.178745
-0.00352301
-0.175217
-0.00359453
-0.171408
-0.00372147
-0.167616
-0.00384928
-0.16364
-0.00390987
-0.159667
-0.00398363
-0.155479
-0.00419391
-0.150898
-0.00456319
-0.146011
-0.00492892
-0.140775
-0.00522956
-0.135038
-0.00577987
-0.128452
-0.00661932
-0.120412
-0.00814673
-0.1112
-0.00930253
-0.100218
-0.0110969
-0.0899145
-0.0102442
-0.0806813
-0.00937755
-0.0712544
-0.00950303
-0.0605921
-0.0107855
-0.0475199
-0.0131479
-0.0328051
-0.0147012
-0.0179149
-0.0149256
-0.00391825
-0.0140046
0.00778578
-0.0116873
0.0169646
-0.0091859
0.0243203
-0.00734227
0.0310852
-0.00678994
0.0376813
-0.00658625
0.0444458
-0.00678821
0.0519844
-0.00754393
0.0600783
-0.00808965
0.0684863
-0.00842133
0.0771894
-0.00868458
0.0861004
-0.00891856
0.0947996
-0.00868476
0.102769
-0.0079685
0.109543
-0.0067511
0.1147
-0.00512417
0.118843
-0.00398125
0.122544
-0.00352493
0.126703
-0.00375674
0.131223
-0.00444172
0.13622
-0.00475129
0.140645
-0.00444697
0.144546
-0.00380483
0.147538
-0.00302223
0.149738
-0.00213481
0.150721
-0.00100674
0.150293
0.000474977
0.149412
0.000852855
0.149506
-7.29745e-05
0.150693
-0.00118659
0.152486
-0.00179473
-0.00198378
-0.183768
-0.00478147
0.186148
-0.181201
-0.00535801
-0.178535
-0.00572005
-0.175867
-0.00594327
-0.173209
-0.00608884
-0.17051
-0.00620755
-0.167807
-0.00631487
-0.164995
-0.00650452
-0.162097
-0.00676885
-0.158927
-0.00705353
-0.155399
-0.00752099
-0.151165
-0.00842501
-0.145978
-0.00974075
-0.139847
-0.0110776
-0.132996
-0.0120635
-0.126097
-0.0126973
-0.11896
-0.0137535
-0.111291
-0.0158323
-0.103623
-0.0169844
-0.0961186
-0.0186122
-0.0879919
-0.0185678
-0.0788509
-0.0184811
-0.073014
-0.0172708
-0.0669615
-0.0157584
-0.0630239
-0.0189077
-0.0532095
-0.0232732
-0.0432134
-0.0254633
-0.0310176
-0.0259972
-0.0177749
-0.0249949
-0.00506866
-0.0219263
0.00702802
-0.0193998
0.0182778
-0.0181508
0.0291453
-0.0174176
0.0399361
-0.0176345
0.0507691
-0.0183747
0.0606358
-0.0179476
0.0698221
-0.0176164
0.0782265
-0.0170676
0.085619
-0.0163162
0.0920671
-0.0151138
0.0977796
-0.0136802
0.103222
-0.0121363
0.10895
-0.0107909
0.115476
-0.0103405
0.122343
-0.0103403
0.129068
-0.0103095
0.134414
-0.00979501
0.138519
-0.00877075
0.141634
-0.00757152
0.144233
-0.00636731
0.146405
-0.00519694
0.148315
-0.00398706
0.149919
-0.00256984
0.151824
-0.00131548
0.154575
-0.00188099
0.158162
-0.00360799
0.161841
-0.00485788
0.165119
-0.00507425
-0.00479662
-0.18143
-0.00620239
0.182859
-0.180022
-0.00677351
-0.178538
-0.00719938
-0.176919
-0.00756184
-0.175082
-0.00792922
-0.172948
-0.00832941
-0.170502
-0.00877268
-0.167674
-0.00930536
-0.164477
-0.00998206
-0.160721
-0.0107828
-0.156458
-0.0117961
-0.151683
-0.0131935
-0.14648
-0.0149615
-0.140713
-0.0168406
-0.13423
-0.0185598
-0.127076
-0.0198575
-0.119747
-0.0210841
-0.112708
-0.0228832
-0.105552
-0.0241551
-0.0985797
-0.0256027
-0.0902246
-0.0270082
-0.0812216
-0.0274504
-0.0729445
-0.0267642
-0.0665919
-0.0209951
-0.0595459
-0.0267618
-0.0506758
-0.0313357
-0.043111
-0.0332746
-0.034985
-0.0338749
-0.0259847
-0.0339817
-0.0164425
-0.0314703
-0.00504102
-0.0306984
0.00831991
-0.03166
0.0238878
-0.0329354
0.0384837
-0.0322781
0.0508242
-0.0307052
0.0617722
-0.0288848
0.0715198
-0.0273663
0.0801172
-0.0256507
0.0875639
-0.0237642
0.0943396
-0.0218789
0.101006
-0.0203503
0.108134
-0.0192251
0.115689
-0.018351
0.122996
-0.0175608
0.129256
-0.0166102
0.134352
-0.0153259
0.138267
-0.0137301
0.141592
-0.0120547
0.144494
-0.01048
0.147207
-0.00905677
0.149808
-0.00779342
0.152526
-0.00665555
0.15565
-0.00565871
0.159764
-0.00535581
0.164086
-0.00619179
0.167901
-0.0073874
0.170809
-0.00776083
0.173106
-0.00737107
-0.00677546
-0.17878
-0.00762058
0.180205
-0.17727
-0.0082941
-0.175569
-0.00889481
-0.173635
-0.0095013
-0.171411
-0.0101529
-0.168881
-0.0108564
-0.166038
-0.0116195
-0.162818
-0.0125141
-0.15921
-0.0135954
-0.155154
-0.014823
-0.150777
-0.0161805
-0.14612
-0.0178355
-0.141317
-0.0197718
-0.136399
-0.0217404
-0.131201
-0.0237615
-0.125296
-0.0257512
-0.118784
-0.0275926
-0.112169
-0.0295052
-0.105395
-0.030941
-0.0986914
-0.0323162
-0.0912327
-0.0345013
-0.0822968
-0.0363209
-0.0725457
-0.036715
-0.0584589
-0.0345595
-0.0477504
-0.037699
-0.0389351
-0.0399253
-0.0309564
-0.0412665
-0.0225276
-0.0422069
-0.013062
-0.0433603
0.000444381
-0.044966
0.0151093
-0.0453016
0.0274933
-0.0441056
0.0377637
-0.0431879
0.0472168
-0.0417488
0.0561743
-0.0396609
0.0645118
-0.0372185
0.0718782
-0.0347346
0.0784366
-0.0322055
0.0844638
-0.0297984
0.0905917
-0.0280047
0.0974825
-0.0272541
0.105455
-0.0271767
0.113814
-0.0267153
0.121529
-0.0252252
0.127963
-0.0230557
0.133283
-0.0206097
0.137706
-0.018159
0.141583
-0.0159114
0.145057
-0.0139548
0.148373
-0.0123549
0.151716
-0.011123
0.155335
-0.0102366
0.159438
-0.00972706
0.163864
-0.00972712
0.167857
-0.0101649
0.170877
-0.0103817
0.173011
-0.00989066
0.174742
-0.00910158
-0.00830243
-0.177383
-0.00892929
0.178694
-0.175974
-0.00971619
-0.174383
-0.0104801
-0.172618
-0.0112745
-0.170619
-0.0121457
-0.168354
-0.0131235
-0.165753
-0.014213
-0.162854
-0.0154114
-0.159683
-0.0167632
-0.156214
-0.0182837
-0.15243
-0.0199711
-0.148345
-0.0219021
-0.144019
-0.0241037
-0.139321
-0.0264181
-0.134229
-0.0288475
-0.128563
-0.0314115
-0.122119
-0.0340294
-0.115318
-0.0363119
-0.107724
-0.0385468
-0.0996726
-0.0403665
-0.0922762
-0.0419159
-0.084092
-0.0444075
-0.0737203
-0.0471891
-0.0584476
-0.0493375
-0.0470457
-0.0492362
-0.0368493
-0.0500029
-0.0264642
-0.051668
-0.0146956
-0.0539682
-0.00215256
-0.05589
0.0104304
-0.0575726
0.0213292
-0.056192
0.031043
-0.0538405
0.0400423
-0.0521871
0.0486754
-0.0503872
0.0569297
-0.0479173
0.0645504
-0.0448373
0.0714687
-0.0416564
0.0781671
-0.0389069
0.0849493
-0.0365883
0.0920002
-0.0350787
0.0995611
-0.0348496
0.107496
-0.0351146
0.115078
-0.0343298
0.122049
-0.0321709
0.128325
-0.0293479
0.134129
-0.0263902
0.139509
-0.0235515
0.144571
-0.0209569
0.149276
-0.0186675
0.153701
-0.0167651
0.157855
-0.015283
0.161798
-0.0141622
0.16542
-0.0133584
0.168617
-0.0129024
0.171172
-0.0127295
0.173094
-0.0122907
0.174638
-0.0114344
0.176017
-0.0104816
-0.00957723
-0.17748
-0.0102758
0.178831
-0.17599
-0.0112112
-0.1743
-0.0121645
-0.172418
-0.0131603
-0.170331
-0.0142251
-0.168063
-0.0153943
-0.165561
-0.0167084
-0.16281
-0.0181648
-0.159779
-0.0197934
-0.15644
-0.0216202
-0.152796
-0.0236202
-0.148929
-0.0257578
-0.144953
-0.0280836
-0.140661
-0.0306957
-0.135907
-0.0335949
-0.130465
-0.0368543
-0.12399
-0.0404855
-0.116576
-0.0437478
-0.108354
-0.0467601
-0.0992181
-0.0495065
-0.0898624
-0.0512834
-0.0808451
-0.0533188
-0.0711055
-0.0570017
-0.0578381
-0.0620094
-0.0463113
-0.0608744
-0.0348365
-0.0614255
-0.0228735
-0.0636481
-0.0109615
-0.0658972
0.000173216
-0.0670208
0.00966173
-0.0670838
0.0189423
-0.0654711
0.0280669
-0.0629831
0.0365672
-0.0606905
0.0445919
-0.0584174
0.0527166
-0.0560468
0.0613644
-0.0534872
0.070391
-0.0506919
0.0797626
-0.0482844
0.0893232
-0.0461875
0.0983123
-0.0440945
0.105965
-0.0425746
0.112537
-0.0417036
0.11841
-0.0402499
0.124015
-0.037758
0.129396
-0.0347544
0.134689
-0.0316616
0.139813
-0.0286857
0.144802
-0.0259238
0.14956
-0.0234266
0.154078
-0.0212547
0.158295
-0.0194862
0.162266
-0.0180886
0.165889
-0.0169539
0.169044
-0.0160056
0.171529
-0.0152003
0.173545
-0.0142842
0.175265
-0.0131509
0.176796
-0.0120117
-0.0109553
-0.178014
-0.0116414
0.179379
-0.176527
-0.0127029
-0.174887
-0.0138002
-0.173095
-0.0149574
-0.171104
-0.0162122
-0.168897
-0.017606
-0.166423
-0.0191824
-0.163639
-0.0209524
-0.160534
-0.0229038
-0.157086
-0.0250678
-0.153298
-0.0274159
-0.149124
-0.0299271
-0.144455
-0.0327544
-0.13913
-0.0360156
-0.133095
-0.0396236
-0.127059
-0.0428984
-0.121668
-0.0458706
-0.115874
-0.0495509
-0.108953
-0.0536792
-0.100239
-0.0582198
-0.0895328
-0.0619975
-0.0781311
-0.0645942
-0.0672211
-0.0677884
-0.0555962
-0.073176
-0.0434866
-0.0729683
-0.0309719
-0.0739406
-0.0197469
-0.0748777
-0.00987124
-0.075779
-0.0009328
-0.0759586
0.00725196
-0.0752766
0.0155076
-0.0737285
0.0250437
-0.072531
0.034323
-0.0699768
0.0426508
-0.0667559
0.0509381
-0.0643427
0.0599555
-0.0625088
0.0697187
-0.0604653
0.079593
-0.0581664
0.0891548
-0.0557682
0.0982634
-0.0532181
0.106526
-0.05089
0.113673
-0.0488475
0.119756
-0.0463759
0.125291
-0.043273
0.130397
-0.0398826
0.13521
-0.0364558
0.139665
-0.0331546
0.14386
-0.0300961
0.147843
-0.0274056
0.151822
-0.0251947
0.155868
-0.0234956
0.159996
-0.0221589
0.16405
-0.020959
0.167856
-0.0197484
0.171038
-0.0183562
0.173497
-0.0167132
0.175457
-0.015103
0.177134
-0.0136857
-0.0124519
-0.180407
-0.0131652
0.181929
-0.178755
-0.0143616
-0.176945
-0.0156089
-0.174964
-0.0169469
-0.172759
-0.0184183
-0.170276
-0.0200959
-0.167483
-0.0219858
-0.164336
-0.0240965
-0.160837
-0.0264165
-0.156972
-0.0289224
-0.152808
-0.0315865
-0.148318
-0.0344111
-0.143468
-0.0376148
-0.138121
-0.0413639
-0.132274
-0.0454717
-0.126167
-0.0490149
-0.119802
-0.0522295
-0.112864
-0.0564945
-0.105414
-0.0611292
-0.098378
-0.0652536
-0.0907426
-0.0696391
-0.0809
-0.0743859
-0.0694312
-0.0791591
-0.0556176
-0.0866104
-0.0447997
-0.0837752
-0.033667
-0.0850865
-0.0227911
-0.0857547
-0.0132664
-0.0853084
-0.00491018
-0.0843139
0.00322906
-0.0834206
0.0124589
-0.0829591
0.0225111
-0.0825852
0.0323481
-0.0798222
0.0422206
-0.0766293
0.0521741
-0.0743023
0.0619529
-0.0722887
0.071576
-0.0700942
0.0809796
-0.0675718
0.0899915
-0.0647807
0.0986656
-0.0618873
0.106761
-0.058995
0.113728
-0.0557883
0.119575
-0.0522317
0.124809
-0.0484936
0.129608
-0.0446966
0.134115
-0.0409519
0.138402
-0.0374521
0.142674
-0.034354
0.147019
-0.0317577
0.15153
-0.0296688
0.156031
-0.0279813
0.160435
-0.0264987
0.164568
-0.0250535
0.168337
-0.0234542
0.171433
-0.0214407
0.173892
-0.0191467
0.175905
-0.0171144
0.177672
-0.0154485
-0.014055
-0.182641
0.18454
-0.0150649
-0.180566
-0.0164423
-0.178346
-0.0178282
-0.176073
-0.0192253
-0.173626
-0.0208711
-0.170988
-0.0227332
-0.168143
-0.0248404
-0.165017
-0.0272091
-0.161575
-0.0298741
-0.157576
-0.0328973
-0.153016
-0.0361646
-0.147961
-0.0394507
-0.142821
-0.0427701
-0.137464
-0.046732
-0.131939
-0.050991
-0.126029
-0.0549352
-0.11954
-0.0587162
-0.112528
-0.0635167
-0.1052
-0.0684649
-0.0980298
-0.0724333
-0.089712
-0.0779662
-0.0815694
-0.0825531
-0.0684973
-0.0922132
-0.0548674
-0.100081
-0.0452039
-0.0934411
-0.0369794
-0.0933082
-0.0271847
-0.095551
-0.0181361
-0.09436
-0.00911706
-0.0933327
0.000249108
-0.092794
0.010338
-0.0930236
0.0200523
-0.0923119
0.030265
-0.0900112
0.0416486
-0.0880316
0.0533695
-0.0860155
0.0640499
-0.0829504
0.0735222
-0.0795561
0.0825422
-0.0765426
0.0910941
-0.0733132
0.099177
-0.0699369
0.106594
-0.0663716
0.113304
-0.0624534
0.119214
-0.0581288
0.124471
-0.0537359
0.129286
-0.049506
0.133814
-0.0454728
0.138371
-0.0420183
0.14309
-0.0390669
0.14777
-0.0364582
0.152384
-0.0342753
0.156782
-0.0323982
0.160839
-0.0305524
0.164619
-0.0288704
0.16844
-0.0272839
0.17186
-0.0248922
0.174667
-0.0219501
0.176704
-0.0191514
0.1785
-0.0172471
-0.0156683
-0.0814222
0.0188481
-0.098013
0.0165919
-0.111188
0.0131743
-0.120009
0.00882286
-0.125717
0.00570801
-0.132306
0.00658941
-0.14252
0.0102131
-0.155641
0.0131198
-0.169681
0.0140384
-0.183076
0.0133925
-0.194711
0.0116336
-0.204003
0.00928836
-0.211198
0.00719477
-0.216822
0.00561961
-0.220443
0.00362034
-0.221557
0.00110874
-0.220883
-0.000674108
-0.219484
-0.0014032
-0.21799
-0.00149501
-0.21667
-0.00132491
-0.21539
-0.00128613
-0.213609
-0.00178561
-0.210393
-0.00322182
-0.205095
-0.00530571
-0.00783811
-0.0856281
0.0317444
-0.0989778
0.029941
-0.11172
0.0259167
-0.124033
0.0211352
-0.136139
0.0178142
-0.147575
0.0180249
-0.158087
0.0207242
-0.168066
0.0230974
-0.17778
0.0237516
-0.187118
0.0227288
-0.195948
0.020463
-0.204177
0.0175164
-0.211318
0.0143344
-0.216706
0.0110067
-0.220297
0.00720732
-0.222325
0.00313536
-0.222716
-0.000286609
-0.221459
-0.00266237
-0.218834
-0.00412369
-0.215282
-0.00488129
-0.211289
-0.00528422
-0.207038
-0.00604035
-0.202137
-0.00812368
-0.195591
-0.011853
-0.0172813
-0.0962289
0.0445132
-0.109534
0.0432455
-0.123006
0.0393884
-0.136555
0.0346835
-0.149791
0.0310488
-0.161776
0.0300106
-0.172067
0.0310131
-0.181057
0.0320877
-0.189187
0.0318808
-0.196565
0.0301064
-0.203173
0.0270719
-0.208956
0.0232982
-0.21377
0.0191505
-0.217448
0.0146821
-0.220044
0.00980387
-0.221604
0.00469256
-0.221874
-1.7146e-05
-0.220697
-0.00384309
-0.218142
-0.00668116
-0.214376
-0.00865027
-0.209584
-0.0100799
-0.203957
-0.0116696
-0.197636
-0.0144379
-0.190509
-0.0189809
-0.0249322
-0.109192
0.0563713
-0.121774
0.0558281
-0.134922
0.0525348
-0.148344
0.0481059
-0.1615
0.0442049
-0.173486
0.0419962
-0.183659
0.0411862
-0.191979
0.0404068
-0.198639
0.0385415
-0.203827
0.0352958
-0.207811
0.0310562
-0.210881
0.0263702
-0.213241
0.0215113
-0.215028
0.0164709
-0.216306
0.0110803
-0.216994
0.00538173
-0.216813
-0.000199648
-0.215554
-0.00510339
-0.213199
-0.00903827
-0.209821
-0.0120291
-0.205415
-0.0144889
-0.200027
-0.0170532
-0.19385
-0.0206141
-0.187122
-0.0257072
-0.0318501
-0.123523
0.0671386
-0.134981
0.0672852
-0.147063
0.0646185
-0.159438
0.0604815
-0.171529
0.0562958
-0.182533
0.0530018
-0.191715
0.0503685
-0.198772
0.0474643
-0.203823
0.0435942
-0.20726
0.0387336
-0.209609
0.0334093
-0.211288
0.0280491
-0.212504
0.0227318
-0.213377
0.0173423
-0.213961
0.0116688
-0.214176
0.0055946
-0.21381
-0.000564872
-0.212699
-0.00621616
-0.21072
-0.0110197
-0.207721
-0.0150277
-0.20355
-0.0186632
-0.198207
-0.0223971
-0.191973
-0.0268408
-0.185296
-0.0323863
-0.0384525
-0.137583
0.0770689
-0.147881
0.0775853
-0.158709
0.0754475
-0.16971
0.0714829
-0.180343
0.0669312
-0.189813
0.0624709
-0.197404
0.0579605
-0.20289
0.0529526
-0.20658
0.047285
-0.208991
0.0411481
-0.21068
0.0350994
-0.211942
0.0293181
-0.212876
0.0236645
-0.21349
0.017964
-0.213818
0.0119965
-0.213836
0.00561538
-0.213395
-0.00100687
-0.212266
-0.00734621
-0.210246
-0.0130399
-0.207121
-0.0181561
-0.202803
-0.0229808
-0.197396
-0.0278
-0.191287
-0.0329491
-0.184976
-0.0386959
-0.0445993
-0.149306
0.0871902
-0.158957
0.0872366
-0.168748
0.085239
-0.178393
0.0811275
-0.18739
0.0759261
-0.195106
0.070191
-0.201168
0.0640236
-0.205594
0.05738
-0.208666
0.0503573
-0.210735
0.0432195
-0.212289
0.0366565
-0.213595
0.0306257
-0.214648
0.0247231
-0.215358
0.018677
-0.215711
0.0123539
-0.215679
0.0055866
-0.215113
-0.00157129
-0.213768
-0.00869132
-0.211396
-0.0154128
-0.20787
-0.021682
-0.203241
-0.0276096
-0.197745
-0.0332928
-0.191749
-0.0389406
-0.185615
-0.0448341
-0.0508375
-0.156453
0.0985389
-0.166447
0.0972315
-0.175775
0.0945659
-0.184258
0.0896086
-0.191742
0.083411
-0.198181
0.0766271
-0.203564
0.0694048
-0.207841
0.0616562
-0.211039
0.0535556
-0.213207
0.0453875
-0.214884
0.0383348
-0.216442
0.0321868
-0.217833
0.0261163
-0.218875
0.0197217
-0.219423
0.0129063
-0.219428
0.00559494
-0.218758
-0.00223685
-0.217176
-0.0102723
-0.214491
-0.0180965
-0.210698
-0.0254774
-0.205925
-0.0323776
-0.200445
-0.0387735
-0.194555
-0.0448296
-0.18845
-0.0509402
-0.0573599
-0.15842
0.111256
-0.16941
0.108221
-0.17864
0.103791
-0.186111
0.0970765
-0.192712
0.0900097
-0.198925
0.0828411
-0.204588
0.0750684
-0.209418
0.0664866
-0.213327
0.0574657
-0.216027
0.0480876
-0.218113
0.0404209
-0.220102
0.0341774
-0.222096
0.0281107
-0.223733
0.0213597
-0.224654
0.0138286
-0.224824
0.00576594
-0.224132
-0.00292696
-0.22245
-0.0119527
-0.219658
-0.0208898
-0.215802
-0.0293304
-0.210977
-0.0372035
-0.205301
-0.0444473
-0.198992
-0.0511362
-0.192245
-0.0576877
-0.0650659
0.274694
-0.697471
0.193585
0.503898
-1.32025
1.06914
0.251173
0.28026
-0.344104
0.063852
0.332102
-0.368726
0.0366267
-0.399875
-0.257839
0.657666
-0.402111
0.676549
-0.274363
-0.267446
0.5846
-0.317144
-0.0762801
-0.172156
0.248413
0.428503
-0.188453
-0.240066
-0.72132
1.45635
-0.735018
-0.241394
-0.0548081
0.296177
0.800792
-1.47728
0.676483
-0.705605
0.0337377
0.671787
0.130723
-0.125012
-0.00571917
-0.0375096
0.132459
-0.0947328
-0.934182
-0.386018
0.124204
-0.0111363
-0.113066
-0.694941
0.121987
-0.16696
0.353587
-0.186644
-0.419843
0.253875
0.165966
0.00617925
0.0426259
-0.048766
-0.230324
0.669485
-0.439174
1.05808
-0.846387
-0.211763
-0.834009
0.193859
0.640113
0.947208
0.110874
-0.926996
0.422513
0.504397
-0.143015
-0.199715
0.342718
0.0441784
-0.0705853
0.026506
-0.0525969
-0.128631
0.18124
0.377791
0.394794
-0.772623
0.889495
-0.845112
-0.0443093
0.563953
0.0127511
-0.576707
0.0372261
-0.0840604
0.0469169
-0.312841
-0.0423811
0.355243
0.104957
0.950505
-1.05551
-0.64485
-0.0608274
-1.83066
0.778068
1.05245
-0.345904