/*--------------------------------*- C++ -*----------------------------------*\
  =========                 |
  \\      /  F ield         | OpenFOAM: The Open Source CFD Toolbox
   \\    /   O peration     | Website:  https://openfoam.org
    \\  /    A nd           | Version:  10
     \\/     M anipulation  |
\*---------------------------------------------------------------------------*/
FoamFile
{
    format      ascii;
    class       volVectorField;
    location    "100";
    object      U;
}
// * * * * * * * * * * * * * * * * * * * * * * * * * * * * * * * * * * * * * //

dimensions      [0 1 -1 0 0 0 0];

internalField   nonuniform List<vector> 
10435
(
(0.952952 -0.00357024 -1.38301e-22)
(0.960858 0.106607 2.77629e-22)
(1.23276 -0.377184 -6.19624e-22)
(1.08525 0.000863191 5.7833e-22)
(1.2083 0.12659 -1.53249e-21)
(1.38831 -0.232724 1.48379e-20)
(1.25364 -0.374614 -2.90225e-21)
(1.38807 -0.297537 1.49146e-20)
(1.73481 -0.189601 3.19549e-19)
(1.32211 -0.365957 -6.01796e-21)
(1.01752 0.102667 4.00302e-22)
(1.29992 -0.0616924 1.55904e-20)
(1.20788 -0.439444 1.49999e-20)
(0.706813 -0.0302736 -5.17287e-20)
(0.751706 0.00278297 -2.0387e-20)
(1.34693 -0.31489 -5.41715e-22)
(0.657979 -0.0484747 1.83385e-20)
(1.37657 -0.509324 6.97448e-20)
(1.87506 -0.154723 -1.49262e-19)
(0.984412 -0.00422854 3.67264e-22)
(1.35764 -0.315573 3.95025e-21)
(1.10736 -0.0331002 -1.49167e-21)
(1.31434 -0.319975 7.86336e-21)
(1.71191 -0.28144 -4.28632e-20)
(1.27497 -0.343291 3.5929e-21)
(0.17254 0.0861739 -9.8471e-22)
(-0.00187917 -0.106785 -4.64169e-21)
(1.19297 -0.406787 1.4799e-21)
(0.231229 -0.178509 7.37477e-22)
(1.34334 -0.415025 4.55864e-20)
(1.33346 -0.242844 5.83914e-21)
(1.04761 0.102145 -4.06532e-23)
(1.43493 -0.275436 -7.04862e-20)
(0.586197 -0.22706 2.14278e-20)
(1.51477 -0.243304 2.70245e-20)
(0.866872 0.114812 -6.7155e-23)
(1.44231 -0.250095 1.87485e-20)
(0.0183757 -0.0270974 1.4444e-20)
(0.434021 0.234316 -1.66578e-22)
(1.88937 -0.215549 3.28403e-20)
(1.38152 -0.38239 -3.07126e-20)
(1.26333 -0.362539 -1.67598e-21)
(0.543116 0.161872 -4.05854e-20)
(1.02294 0.0151002 3.10665e-22)
(1.38475 -0.251312 -1.68032e-20)
(1.80222 -0.275911 9.25887e-20)
(1.38525 -0.330139 -1.59684e-20)
(0.402968 0.186598 -1.24684e-19)
(1.72579 -0.162747 1.37256e-19)
(1.13118 -0.0704538 -1.12637e-21)
(1.39568 -0.294381 -2.80133e-21)
(1.3477 -0.17397 8.26856e-20)
(0.490416 0.203311 -1.3284e-21)
(0.403519 -0.131141 4.10663e-22)
(0.369733 0.218244 7.87527e-23)
(0.172999 -0.122191 -1.31888e-21)
(1.54664 -0.2186 -1.09208e-19)
(0.0335273 -0.0755496 1.11513e-20)
(0.587982 -0.100217 -1.50921e-20)
(1.66131 -0.227438 9.02568e-20)
(0.448703 0.166366 1.40968e-21)
(0.931485 0.110175 -4.13211e-22)
(0.0870878 -0.157472 -1.23234e-20)
(1.3454 -0.0231144 -7.91386e-21)
(1.34682 -0.288388 -1.6725e-20)
(1.22934 -0.372933 3.8176e-21)
(0.576906 -0.127632 2.99065e-20)
(0.243381 -0.0375076 2.70329e-20)
(1.35167 -0.318521 -9.41666e-21)
(1.59708 -0.294515 3.01615e-21)
(0.32773 -0.145969 -1.72672e-21)
(0.127435 -0.0192175 6.28903e-22)
(0.645355 0.217233 1.57875e-19)
(1.25583 -0.349567 -4.9293e-21)
(0.782945 0.0186216 -4.08222e-21)
(0.650026 0.142742 1.4356e-20)
(1.47948 -0.272589 1.06775e-19)
(1.26626 -0.365574 1.00185e-20)
(1.47666 -0.245017 1.80031e-20)
(0.797463 -0.0068995 1.1851e-20)
(1.21606 -0.12693 3.84613e-21)
(0.939117 -0.0330153 -1.84297e-22)
(0.535652 0.169771 9.91851e-22)
(0.471762 -0.146425 -2.97858e-22)
(1.27555 -0.164492 -1.09201e-20)
(0.844286 0.0855498 2.87164e-21)
(0.887222 0.0550126 2.27518e-22)
(1.00508 0.0462265 -3.25568e-23)
(0.796506 0.0600062 -4.0884e-22)
(0.918576 0.0545812 -1.9214e-22)
(1.03462 0.042355 1.26888e-22)
(1.06829 0.0385725 -9.44333e-23)
(0.974247 -0.0317905 -2.10079e-22)
(0.822935 0.0594851 1.61527e-21)
(0.948158 0.0530048 -3.27812e-23)
(0.834533 0.112953 1.2595e-21)
(1.10432 0.028875 2.10414e-21)
(0.764756 0.0440612 4.16162e-21)
(0.643159 -0.0956297 -2.62587e-20)
(1.14696 0.0471201 -4.53764e-21)
(0.778994 0.0530432 5.02411e-21)
(1.25986 0.180212 -3.67272e-22)
(0.85393 0.0567331 -7.38254e-22)
(0.976745 0.0500289 6.85309e-23)
(1.31332 0.143774 8.428e-22)
(1.05287 0.0087885 -4.10195e-22)
(1.00683 -0.0321923 3.59317e-22)
(1.16873 -0.096109 3.18661e-21)
(1.3524 -0.202704 -2.1516e-20)
(0.826662 -0.0102754 -1.37328e-21)
(1.09921 -0.0564466 -4.88323e-23)
(1.20585 0.175961 -6.16044e-22)
(0.900622 -0.0315934 -1.83112e-21)
(0.86278 -0.0224139 -1.19691e-21)
(1.10487 0.0546363 -8.08682e-22)
(1.07544 -0.0230147 4.66694e-22)
(1.1905 0.0386567 -4.08658e-21)
(0.876245 0.0851225 -9.94836e-23)
(0.99391 0.0759908 3.74814e-22)
(1.19143 -0.00141562 -1.34511e-21)
(1.23728 0.0211359 -1.75828e-20)
(0.670177 0.188593 1.08077e-20)
(0.907546 0.0840076 -6.66545e-22)
(0.767072 0.120772 -1.34404e-20)
(1.07711 0.13138 -1.28361e-22)
(0.347478 0.115598 8.80757e-22)
(1.14834 0.0123459 5.94614e-21)
(0.713628 0.163471 -2.74396e-20)
(1.20303 0.0811813 -7.22672e-21)
(-0.0234334 -0.138245 -9.08685e-22)
(0.747492 0.135393 2.4935e-20)
(1.04702 0.127569 7.48853e-22)
(1.37737 -0.302637 -1.12805e-20)
(0.770396 -0.0194809 1.9616e-20)
(0.074057 -0.0237189 -6.58884e-24)
(0.677282 0.170564 2.91047e-22)
(0.821737 0.138144 3.84391e-21)
(1.12104 -0.011495 -1.27435e-22)
(0.965911 0.0788306 -1.27217e-22)
(1.04504 -0.0149651 -1.27132e-22)
(1.01499 -0.00822506 -1.2375e-22)
(1.34154 -0.256637 -1.91495e-20)
(0.556242 -0.153889 9.17069e-20)
(1.3565 -0.05653 9.56911e-20)
(1.14328 -0.0486576 2.42429e-22)
(0.724494 0.0806013 1.10533e-19)
(0.791694 0.129362 -2.25157e-21)
(1.35995 -0.0909609 -2.25857e-20)
(0.630868 0.0174718 7.65667e-20)
(1.36436 -0.0785221 7.52381e-21)
(0.381471 0.206629 -6.4425e-22)
(1.43422 -0.218877 2.84275e-20)
(0.933965 0.0255046 -1.90568e-23)
(1.37862 -0.108147 5.36741e-20)
(1.34856 -0.256395 -1.50048e-20)
(0.355067 0.158411 2.24547e-21)
(1.11138 0.140027 9.63142e-23)
(0.937447 0.0815863 1.17179e-22)
(1.34337 -0.322849 -1.28799e-20)
(0.989538 0.129794 7.36085e-23)
(1.39925 -0.174908 -8.92501e-21)
(0.73381 -0.0511672 -1.86534e-20)
(1.05687 0.0706054 1.34001e-21)
(1.29389 -0.115282 1.05623e-20)
(0.811035 0.0213207 2.83434e-21)
(1.25637 0.0543845 4.63467e-20)
(1.51411 -0.249049 -1.57834e-19)
(1.20762 -0.0438791 -5.13665e-21)
(1.41476 -0.165326 3.12154e-20)
(1.32784 0.00944331 -1.30786e-19)
(1.30295 -0.310477 1.24725e-20)
(0.658566 0.228448 -4.35177e-20)
(0.0107417 -0.0769269 2.65373e-21)
(0.749754 0.0775586 2.09793e-21)
(1.39912 -0.124505 -3.67299e-20)
(0.960047 0.133857 3.50346e-22)
(0.899704 0.113711 1.10841e-21)
(0.465688 0.0531234 2.09474e-20)
(1.06879 -0.046047 1.5817e-22)
(0.286811 -0.232455 -1.69755e-21)
(0.989108 0.103984 -2.77302e-22)
(1.38169 -0.101111 -2.37598e-21)
(1.33515 -0.058093 -6.21418e-20)
(0.432706 0.127756 5.78448e-22)
(1.37175 -0.220061 4.73171e-21)
(0.531795 0.212584 5.67411e-20)
(0.632434 0.186993 -1.38997e-19)
(1.29274 -0.352878 -1.06948e-20)
(1.26156 0.125073 3.66914e-21)
(1.35622 -0.10081 -6.47705e-20)
(1.27218 -0.0128052 5.19045e-21)
(0.576595 0.15806 9.06353e-22)
(0.0157387 -0.106318 1.8036e-21)
(0.855786 0.143077 -2.51961e-21)
(1.15445 0.157721 3.25523e-22)
(1.32256 -0.336343 6.40426e-22)
(0.6216 0.0934795 1.65766e-19)
(0.81395 0.0843089 -1.55023e-21)
(0.426596 0.122838 1.27239e-19)
(1.38501 -0.286323 1.19454e-20)
(0.801666 0.0398073 -2.72843e-21)
(0.114924 0.0760227 1.10939e-20)
(1.19293 -0.415625 -1.07978e-21)
(0.0732756 0.0196163 1.41657e-20)
(1.20547 -0.397038 -1.45823e-21)
(1.10966 0.0811548 2.23715e-22)
(1.02281 0.0734382 -2.73258e-22)
(1.16285 -0.0277292 -2.30552e-21)
(0.188334 -0.189193 -1.1728e-20)
(1.1863 -0.0695052 -2.68177e-21)
(0.485386 0.231541 -1.70804e-20)
(1.28388 -0.340913 -1.04955e-20)
(1.30144 -0.000573122 7.32669e-20)
(1.34176 -0.118686 9.09423e-21)
(0.0138058 -0.116922 2.88009e-21)
(0.684845 0.0197388 -2.30723e-19)
(0.84671 0.00747618 6.75878e-22)
(0.56719 0.152139 -1.26442e-21)
(0.107894 0.0744076 -2.20765e-22)
(0.694066 -0.0935883 3.17119e-20)
(0.38617 -0.233626 -8.61911e-22)
(0.520328 -0.0153259 4.9502e-20)
(0.436092 -0.168467 -4.06462e-20)
(0.757727 0.0990848 -3.17492e-20)
(0.281105 0.0677502 5.96094e-22)
(1.42358 -0.277912 -9.11571e-21)
(0.246928 0.185695 1.41183e-21)
(0.78885 0.0794227 9.90685e-22)
(1.33979 -0.208228 5.38546e-20)
(0.700742 0.125136 -1.57113e-19)
(0.396615 -0.00745591 -1.47368e-19)
(1.45941 -0.267243 8.60005e-20)
(0.166973 0.127426 8.73474e-22)
(1.47468 -0.187453 4.86718e-20)
(-0.0182253 -0.126081 9.02775e-21)
(0.588918 -0.0375751 -1.05294e-19)
(1.5931 -0.21893 -9.2553e-20)
(0.211295 0.0268787 -9.67687e-22)
(1.54317 -0.216791 -4.86386e-21)
(1.30499 -0.279493 3.81028e-22)
(0.993862 0.0205429 -1.93986e-22)
(0.367042 0.0979541 2.48578e-22)
(0.592347 0.191282 3.35454e-22)
(0.255599 -0.130473 -3.64686e-23)
(1.08164 0.0760103 -2.78472e-21)
(1.58963 -0.217802 9.50405e-20)
(0.804172 0.10741 -6.45462e-21)
(1.32033 -0.329255 6.97237e-21)
(0.059705 -0.063014 4.90666e-22)
(0.92752 0.138933 -3.62908e-22)
(0.12383 -0.0905723 -3.25746e-22)
(0.833563 0.0334821 -1.56855e-21)
(1.25078 -0.443377 -2.73775e-20)
(1.23633 -0.092728 -7.00112e-21)
(1.29452 -0.347793 -1.26425e-20)
(1.29135 0.0768231 2.03015e-20)
(0.0663202 -0.0774534 -3.30316e-22)
(1.27326 -0.358113 1.37876e-20)
(0.480035 0.192841 8.15945e-22)
(0.242781 0.133407 -3.67081e-20)
(1.25389 -0.369605 4.8219e-22)
(1.31895 -0.264758 -3.04553e-22)
(0.296577 0.082785 3.27492e-22)
(1.40627 -0.202433 -5.34698e-20)
(0.882162 -0.00127041 5.4208e-22)
(0.495512 -0.0622963 9.75709e-20)
(0.96434 0.0240564 -7.1017e-23)
(1.31266 -0.291125 6.75011e-21)
(0.538544 0.133141 -4.99615e-22)
(1.14853 0.0831796 7.6745e-22)
(1.23893 -0.381 -4.39143e-24)
(1.3375 -0.306409 -7.41928e-21)
(1.3085 -0.334359 -2.34187e-21)
(1.2464 -0.362757 -1.37406e-20)
(0.0642449 0.0207141 7.29051e-23)
(1.23483 -0.0145906 -8.20235e-21)
(-0.00268939 -0.0693728 -6.05628e-21)
(1.15246 0.12113 2.75162e-22)
(1.32962 -0.332184 3.39995e-21)
(1.36371 -0.286428 5.60552e-21)
(1.25203 -0.406064 1.0537e-20)
(0.548912 0.0912287 -2.08671e-19)
(1.22091 -0.390537 -1.67804e-22)
(0.769987 0.0755702 -2.44084e-21)
(0.866254 0.0278931 -5.96102e-22)
(0.616621 0.154265 -5.34836e-22)
(1.30954 0.0850427 2.91582e-21)
(0.336161 0.251665 -4.62056e-22)
(0.540907 -0.172118 -2.08652e-21)
(0.475523 -0.248226 3.954e-21)
(0.778479 0.101069 1.1065e-20)
(1.01775 0.128437 -1.10307e-21)
(0.31196 -0.21895 6.58131e-21)
(1.3223 -0.320203 9.84865e-21)
(0.417195 0.300188 -1.73977e-22)
(0.258575 -0.133191 -1.27552e-21)
(0.686504 0.0830159 -3.6443e-21)
(0.919221 -0.0041047 2.5622e-22)
(1.11021 0.111239 -1.91089e-23)
(1.28672 -0.306194 4.74579e-21)
(0.326426 0.0571185 2.16224e-19)
(1.47889 -0.207794 -1.67604e-20)
(1.20455 -0.398066 -4.9799e-23)
(0.0365092 -0.0536511 5.8441e-22)
(1.07699 0.106966 -1.49567e-22)
(0.727564 0.0358518 5.86263e-20)
(0.56822 0.0193181 8.82982e-20)
(1.47391 -0.172255 -4.21326e-21)
(1.25955 -0.336797 6.89587e-23)
(0.603153 -0.196783 1.33973e-21)
(1.03803 -0.0372378 1.28187e-22)
(0.16324 0.0856988 3.23391e-21)
(0.891524 0.143482 9.01236e-22)
(1.34392 0.0224115 -9.11437e-21)
(1.67139 -0.222642 -4.41927e-20)
(0.191397 -0.106061 -1.48932e-22)
(0.469905 0.124843 -7.91843e-22)
(1.365 -0.15313 -7.87201e-20)
(0.342408 -0.0791555 2.95253e-21)
(1.25548 -0.0571695 8.56945e-21)
(1.36086 0.0441487 -2.02405e-21)
(0.0899019 -0.169702 1.16714e-20)
(0.901315 0.0255478 -1.38977e-22)
(0.615564 0.157688 1.45037e-22)
(1.41188 -0.264389 -6.75568e-21)
(1.21046 -0.409413 -3.19541e-21)
(0.0353393 -0.0337925 1.36325e-22)
(1.19434 -0.405083 -5.73099e-24)
(0.453546 -0.110993 -6.44307e-22)
(-0.00779725 -0.098975 -1.64439e-20)
(1.73437 -0.227056 -5.98931e-21)
(0.541112 -0.19981 -1.00105e-20)
(0.654499 -0.204805 3.19518e-21)
(1.22668 -0.386939 9.26816e-23)
(1.41444 -0.140498 3.17925e-20)
(0.11137 -0.0973621 -2.8018e-20)
(0.187486 -0.120782 -5.57419e-23)
(0.0707847 -0.0766832 4.90009e-24)
(0.666366 -0.186521 3.89908e-21)
(0.0312971 -0.0863322 5.47154e-22)
(0.0229757 -0.0911 -3.72546e-22)
(0.228538 0.0757716 2.70703e-21)
(0.497948 0.141521 -2.04034e-22)
(0.00284439 -0.0662303 -1.8774e-21)
(0.0146727 -0.0528738 1.06876e-21)
(0.295601 0.172264 -4.18485e-21)
(0.201973 -0.127858 7.90569e-21)
(-0.00395796 -0.126472 -3.19668e-22)
(0.647449 0.160916 -9.59533e-22)
(1.51069 -0.227632 -7.70795e-20)
(0.676369 -0.199517 1.22623e-20)
(1.22307 -0.384683 5.50119e-22)
(0.000700372 -0.0834625 4.76839e-22)
(1.1879 -0.411034 -1.54464e-23)
(1.45762 -0.236934 3.13199e-20)
(1.66135 -0.114526 -3.63613e-20)
(1.18001 -0.443716 -2.47909e-22)
(1.28619 -0.322486 -3.57627e-21)
(0.33171 -0.126878 1.18388e-21)
(0.544812 -0.225797 -1.09665e-20)
(0.121425 -0.100957 -3.1688e-22)
(0.23216 0.140565 2.67548e-21)
(0.0679957 -0.0934526 -2.03122e-24)
(0.581907 0.143149 3.33097e-22)
(0.0470664 -0.133752 -5.0148e-21)
(0.0226916 -0.143318 3.4635e-22)
(0.161198 0.00803444 -6.54574e-20)
(1.37302 -0.114475 -2.87393e-21)
(0.0384982 -0.0870551 -3.11258e-21)
(1.61727 -0.194607 9.92913e-20)
(0.291338 0.182962 -1.15036e-21)
(0.0047676 -0.182267 -2.24498e-22)
(1.17102 -0.453929 -1.55831e-20)
(1.66937 -0.0650672 -1.13054e-19)
(0.645923 0.176661 6.30841e-21)
(0.00223637 -0.0999286 9.91957e-22)
(0.0197144 -0.122963 5.25089e-21)
(-0.00504359 -0.118947 -4.2339e-23)
(0.471116 -0.198821 1.80075e-21)
(0.114542 0.0277755 -4.9997e-22)
(-0.0013464 -0.118749 -1.0126e-21)
(0.391882 0.166017 -5.53562e-22)
(1.41423 -0.274563 -8.81967e-21)
(0.311146 -0.154785 -1.34079e-20)
(1.34125 -0.314386 1.27016e-21)
(1.53228 -0.19091 1.43588e-19)
(1.18408 -0.417833 -3.42501e-23)
(1.18475 -0.429261 7.428e-21)
(1.60708 -0.1581 -6.91777e-20)
(1.19804 -0.402099 -3.55845e-22)
(1.57527 -0.24049 -2.94964e-20)
(0.734708 0.104007 4.75549e-21)
(0.569383 0.239565 -2.53227e-20)
(0.318402 -0.177443 2.23537e-21)
(0.255518 -0.12833 -1.03636e-21)
(1.2086 -0.395493 4.649e-22)
(0.398027 -0.159633 -3.52698e-21)
(1.20555 -0.479437 -6.25912e-20)
(-0.00645794 -0.134961 2.47326e-22)
(0.178603 -0.207095 -1.31434e-21)
(-0.0261571 -0.196523 1.72469e-22)
(0.436287 -0.220689 -4.86131e-21)
(0.50245 0.147614 1.51842e-21)
(1.29689 -0.344322 1.11269e-20)
(-0.010266 -0.11623 -1.4926e-21)
(1.36848 -0.296429 1.02886e-21)
(1.44524 -0.168946 -1.77944e-20)
(0.604234 0.225271 -1.85872e-21)
(0.0693432 -0.0257577 3.70777e-22)
(-0.0235817 -0.14546 -3.69659e-22)
(1.78402 -0.0763887 1.55275e-19)
(-0.0422052 -0.167712 1.24249e-21)
(0.0461606 -0.0686862 1.65096e-22)
(0.389271 0.118694 -2.1306e-21)
(0.114952 -0.105892 4.02557e-22)
(0.265344 0.109145 2.03302e-20)
(0.0919894 -0.141436 5.12018e-22)
(1.21024 -0.393001 2.17912e-21)
(0.238278 -0.146969 2.08965e-24)
(0.140335 -0.0244276 8.00507e-22)
(0.153436 -0.163579 -1.74187e-21)
(0.622856 -0.148608 -6.33027e-20)
(1.2846 -0.563021 -4.7294e-20)
(0.690166 0.205801 1.69421e-20)
(0.688874 0.180882 -2.00321e-20)
(1.61431 -0.0182991 -2.05044e-19)
(0.616051 -0.220449 -4.57017e-21)
(0.613872 -0.499566 1.79315e-21)
(0.702647 -0.487412 -4.37641e-22)
(0.74918 -0.455005 -1.05957e-21)
(0.761093 -0.422891 3.73674e-22)
(0.764942 -0.398733 -1.12289e-22)
(0.768507 -0.378295 2.28287e-23)
(0.769553 -0.359092 6.44218e-23)
(0.772412 -0.338906 7.17635e-23)
(0.77602 -0.317775 2.78448e-22)
(0.70066 -0.494475 -3.32735e-21)
(0.7518 -0.4864 -4.52752e-22)
(0.781938 -0.454399 5.2557e-22)
(0.783594 -0.422911 -4.25923e-22)
(0.782803 -0.397338 3.11023e-23)
(0.782688 -0.37698 9.81053e-23)
(0.782368 -0.360093 -9.347e-23)
(0.78433 -0.342685 4.15145e-22)
(0.788154 -0.323524 -6.16517e-22)
(0.761094 -0.495999 4.83341e-21)
(0.789633 -0.48219 9.72062e-22)
(0.809923 -0.451584 -9.60505e-22)
(0.806402 -0.420107 1.73008e-22)
(0.802551 -0.393678 -1.05572e-22)
(0.800881 -0.372824 -2.78346e-23)
(0.800871 -0.356891 1.18358e-23)
(0.804028 -0.341569 -5.47981e-23)
(0.809499 -0.324788 -8.8438e-22)
(0.809306 -0.48994 -2.31443e-21)
(0.821437 -0.4728 7.08698e-22)
(0.836581 -0.445628 4.28596e-22)
(0.830794 -0.41285 -5.24419e-23)
(0.825209 -0.385101 2.45614e-23)
(0.822459 -0.362702 2.12457e-22)
(0.822619 -0.346678 -1.97548e-22)
(0.826828 -0.332974 9.54526e-23)
(0.833954 -0.319522 6.40585e-22)
(0.845909 -0.472922 -1.0263e-22)
(0.852196 -0.454733 5.43718e-23)
(0.866625 -0.432626 1.46614e-22)
(0.860585 -0.397566 -6.48251e-23)
(0.853476 -0.368777 1.88533e-24)
(0.848942 -0.344904 -2.71673e-23)
(0.847958 -0.328893 7.424e-23)
(0.851631 -0.316806 4.04914e-22)
(0.858823 -0.307042 2.81831e-22)
(0.874667 -0.443239 1.17308e-22)
(0.886238 -0.422702 -1.53383e-21)
(0.902692 -0.407068 -6.05867e-23)
(0.896568 -0.370189 1.3627e-22)
(0.886443 -0.341957 -2.28607e-23)
(0.878362 -0.317886 -1.51181e-22)
(0.874377 -0.302983 -4.07812e-23)
(0.87554 -0.293014 -6.31046e-22)
(0.880493 -0.286871 8.98734e-22)
(0.901851 -0.402307 1.15259e-22)
(0.924154 -0.376814 7.06863e-22)
(0.942332 -0.367692 2.91741e-23)
(0.934832 -0.331442 4.47713e-23)
(0.919962 -0.305853 6.72212e-24)
(0.907015 -0.283038 -2.25768e-22)
(0.898922 -0.27015 5.40604e-23)
(0.896563 -0.262616 -2.04956e-22)
(0.898428 -0.259695 -2.3038e-22)
(0.929537 -0.352444 -1.81917e-22)
(0.962289 -0.323411 5.43115e-22)
(0.979779 -0.319596 -8.19668e-23)
(0.969531 -0.287499 1.66243e-22)
(0.949463 -0.266308 -6.63108e-23)
(0.931455 -0.245638 1.84694e-22)
(0.919055 -0.234602 3.76801e-22)
(0.912963 -0.228815 -7.46992e-22)
(0.911696 -0.22774 2.36691e-22)
(0.958644 -0.292938 3.21532e-24)
(0.996562 -0.266896 2.31363e-23)
(1.01012 -0.268638 -4.38893e-23)
(0.996316 -0.244477 -2.52493e-22)
(0.971943 -0.229652 -7.72302e-23)
(0.949631 -0.212517 -1.69675e-22)
(0.93331 -0.203233 -5.21714e-23)
(0.923755 -0.198367 4.33584e-22)
(0.919534 -0.197962 -1.0798e-22)
(0.988521 -0.22874 -2.73007e-23)
(1.02166 -0.210354 -1.63777e-22)
(1.02919 -0.220125 -3.38729e-23)
(1.01278 -0.205839 -3.16944e-24)
(0.98604 -0.198596 -3.72493e-23)
(0.961136 -0.186521 1.40751e-22)
(0.94206 -0.179472 -1.03609e-23)
(0.929803 -0.17532 2.07435e-22)
(0.923057 -0.1746 -1.49019e-23)
(1.01335 -0.169354 1.24109e-22)
(1.03404 -0.161263 2.99386e-23)
(1.03644 -0.177684 -2.93864e-23)
(1.01918 -0.173533 1.07318e-22)
(0.992709 -0.17284 -2.80481e-23)
(0.967486 -0.165817 -4.58327e-23)
(0.947315 -0.161033 -5.83286e-23)
(0.933368 -0.157447 -1.12258e-22)
(0.924397 -0.156176 -1.09328e-24)
(1.02487 -0.120073 -2.02247e-22)
(1.03305 -0.120692 4.09588e-23)
(1.03423 -0.144915 9.63828e-24)
(1.01875 -0.147561 5.94593e-23)
(0.994664 -0.150774 -8.30815e-24)
(0.970856 -0.147337 8.96147e-23)
(0.950944 -0.144254 -9.7256e-24)
(0.936176 -0.14102 -4.15805e-23)
(0.925571 -0.139263 -1.87994e-23)
(1.01823 -0.0814415 -8.26978e-23)
(1.02166 -0.0853255 -8.15695e-25)
(1.02575 -0.118776 1.23949e-23)
(1.01468 -0.124287 2.53389e-23)
(0.994209 -0.129719 -1.07266e-23)
(0.972709 -0.128364 -1.96218e-23)
(0.953861 -0.126417 -1.93886e-23)
(0.93887 -0.123424 2.5635e-23)
(0.927066 -0.12116 -1.33136e-23)
(0.991844 -0.0427642 1.45034e-22)
(1.00169 -0.0519197 -2.14574e-23)
(1.01339 -0.0947121 9.01242e-24)
(1.00883 -0.10095 1.02559e-23)
(0.992536 -0.10733 -4.54214e-25)
(0.973612 -0.107022 -2.22747e-24)
(0.956223 -0.105906 -1.0297e-23)
(0.941456 -0.103162 2.43888e-24)
(0.928716 -0.100549 9.3041e-24)
(0.946729 0.000829645 -4.36954e-22)
(0.970616 -0.016314 1.38171e-22)
(0.996194 -0.067069 -7.20826e-23)
(1.00116 -0.0739198 2.80066e-23)
(0.98966 -0.081404 -5.18731e-24)
(0.973275 -0.0820321 1.05404e-23)
(0.957529 -0.081969 3.67973e-24)
(0.943478 -0.0798092 1.08057e-23)
(0.930426 -0.0773212 -5.5756e-23)
(0.886666 0.0390128 -5.73058e-22)
(0.929048 0.0215416 -3.36254e-22)
(0.972526 -0.0328817 1.97032e-22)
(0.989524 -0.0401746 -1.42382e-22)
(0.984127 -0.0501837 -5.42479e-23)
(0.970526 -0.0526455 1.25107e-23)
(0.956651 -0.0543745 -1.71893e-23)
(0.943969 -0.0534423 2.31091e-23)
(0.93169 -0.0517639 -1.71117e-23)
(0.81611 0.0648966 -1.10181e-21)
(0.881364 0.0607157 -2.38524e-23)
(0.942052 0.0088737 1.29508e-23)
(0.970667 0.00238263 1.15195e-22)
(0.972849 -0.0117196 7.13549e-23)
(0.96328 -0.017982 -3.47044e-22)
(0.951949 -0.0227392 6.65846e-23)
(0.941463 -0.023785 -2.34802e-23)
(0.9313 -0.023593 -8.64743e-24)
(0.734896 0.085681 1.63106e-21)
(0.832651 0.10404 3.54144e-22)
(0.904842 0.0606252 1.48903e-22)
(0.942181 0.054681 -1.81779e-22)
(0.951313 0.0359011 -8.58015e-24)
(0.948032 0.0233235 5.9369e-22)
(0.941119 0.0137984 -9.93928e-23)
(0.934101 0.00999933 3.84506e-23)
(0.927168 0.00856068 -3.8991e-23)
(0.644884 0.122482 1.14509e-22)
(0.781282 0.157537 -2.42387e-22)
(0.857776 0.126405 -1.51684e-22)
(0.901725 0.116598 7.13668e-22)
(0.915591 0.0921874 -3.35679e-22)
(0.919987 0.0716062 -3.32762e-22)
(0.920903 0.0555812 -2.93279e-22)
(0.919885 0.0479773 -1.4156e-22)
(0.917795 0.0445216 -4.37363e-23)
(0.555644 0.191863 -2.45476e-22)
(0.722201 0.221597 7.52386e-23)
(0.796113 0.204297 -3.27721e-22)
(0.846354 0.183443 3.45442e-23)
(0.864469 0.151622 -4.37408e-22)
(0.876171 0.122979 3.48021e-22)
(0.887531 0.100701 1.89044e-21)
(0.896281 0.0885335 1.86162e-22)
(0.900983 0.0822561 1.19937e-22)
(0.479333 0.296816 1.02881e-22)
(0.648213 0.289523 1.46612e-21)
(0.718568 0.282677 -4.51975e-22)
(0.776334 0.244454 4.1359e-22)
(0.800782 0.204255 -1.85412e-22)
(0.819855 0.169024 -4.24552e-22)
(0.840383 0.143232 -9.00994e-22)
(0.861242 0.127495 -6.19052e-22)
(0.875925 0.118155 2.19769e-24)
(0.44791 0.400931 -1.12672e-23)
(0.565105 0.340513 -2.73295e-21)
(0.63028 0.336933 8.95287e-22)
(0.694622 0.281447 -2.51814e-22)
(0.729665 0.238488 7.54443e-22)
(0.758313 0.200512 -5.01714e-22)
(0.785685 0.17481 4.85414e-23)
(0.815421 0.158726 -1.4934e-22)
(0.840374 0.148492 -3.6821e-22)
(0.471589 0.441652 -4.98556e-22)
(0.508309 0.345152 2.34763e-21)
(0.555898 0.339215 -3.06769e-22)
(0.6269 0.280856 -4.85304e-22)
(0.666429 0.243038 -2.22037e-22)
(0.703017 0.209042 6.28584e-23)
(0.735228 0.188162 -2.56174e-22)
(0.768481 0.175607 6.47752e-22)
(0.798631 0.168204 -2.84125e-21)
(0.500185 0.409543 -7.79418e-22)
(0.489471 0.306438 -1.25484e-21)
(0.520829 0.294638 6.56729e-23)
(0.578985 0.246228 3.72265e-22)
(0.622556 0.21961 -3.5873e-22)
(0.662744 0.196 3.34195e-23)
(0.697426 0.183117 8.43891e-22)
(0.731716 0.176726 -1.43736e-21)
(0.762764 0.175435 2.71934e-21)
(0.478524 0.351067 -5.71338e-22)
(0.475939 0.261997 2.69707e-22)
(0.512844 0.241787 1.09126e-22)
(0.55723 0.203019 -8.57388e-22)
(0.598705 0.186053 1.30673e-22)
(0.638383 0.173803 -7.87665e-22)
(0.67255 0.169578 6.74107e-22)
(0.705817 0.170403 -6.77479e-22)
(0.736544 0.17508 -3.29077e-22)
(0.710725 0.671288 -3.58257e-21)
(0.694575 0.668397 -4.73447e-21)
(0.677692 0.664331 -1.84398e-20)
(0.660552 0.660119 3.77305e-20)
(0.64235 0.655187 -4.09936e-20)
(0.622635 0.650363 4.36269e-20)
(0.602026 0.646107 1.74511e-20)
(0.579812 0.641785 -5.97317e-21)
(0.553045 0.638122 -2.4766e-20)
(0.523128 0.635338 -7.06109e-21)
(0.493192 0.632226 7.23738e-21)
(0.464705 0.627202 -6.53342e-21)
(0.436987 0.620158 1.89676e-20)
(0.40937 0.612557 -4.79758e-20)
(0.383298 0.607001 9.15022e-20)
(0.359049 0.596596 -1.38476e-19)
(0.333491 0.580982 2.07291e-19)
(0.311426 0.552286 -2.13495e-19)
(0.28707 0.511894 -2.63792e-19)
(0.273585 0.450797 4.04667e-19)
(0.231521 0.42981 -2.49574e-19)
(0.189051 0.40055 9.68031e-19)
(0.166922 0.359534 -2.30914e-20)
(0.153517 0.312191 -1.53625e-18)
(0.148846 0.254663 1.28807e-18)
(0.154106 0.16825 -1.75368e-19)
(0.140685 0.0892409 3.36336e-21)
(0.11524 0.0266183 4.70693e-22)
(0.088802 -0.0260316 -1.45354e-22)
(0.0715192 -0.0696842 4.33413e-24)
(0.0668273 -0.105041 -1.90101e-22)
(0.0722367 -0.134509 8.55263e-23)
(0.0813366 -0.163666 2.50336e-22)
(0.0960737 -0.192629 -1.40122e-22)
(0.11126 -0.222204 6.31342e-22)
(0.133094 -0.25091 -8.98104e-22)
(0.157189 -0.285052 9.34081e-23)
(0.18618 -0.319464 1.99094e-22)
(0.220108 -0.355279 -2.87857e-22)
(0.25327 -0.391049 4.35905e-22)
(0.281757 -0.422301 -3.49327e-22)
(0.303704 -0.448055 -2.85865e-22)
(0.315991 -0.469954 1.13227e-21)
(0.319598 -0.489806 -2.92844e-21)
(0.323365 -0.507703 7.88742e-21)
(0.34144 -0.518824 -8.18341e-21)
(0.377868 -0.519866 4.31779e-21)
(0.417966 -0.522752 -1.10916e-21)
(0.447744 -0.531928 9.7264e-22)
(0.467602 -0.542981 -7.87935e-22)
(0.480346 -0.553226 -1.28815e-21)
(0.487603 -0.562527 -6.10114e-22)
(0.48832 -0.571946 1.68029e-21)
(0.476239 -0.582505 7.7266e-21)
(0.461025 -0.588295 -9.83041e-21)
(0.469981 -0.578503 8.07494e-21)
(0.494871 -0.560145 -3.42179e-21)
(0.523867 -0.543604 -1.58754e-21)
(0.55011 -0.530547 -1.49677e-21)
(0.743656 0.534677 -2.92872e-22)
(0.737306 0.526704 1.2788e-21)
(0.723857 0.524948 -5.0539e-21)
(0.705046 0.527872 1.38388e-20)
(0.68283 0.533555 3.86679e-21)
(0.65831 0.541135 -4.39073e-20)
(0.632745 0.548685 7.93998e-21)
(0.609249 0.553063 -4.56762e-21)
(0.58752 0.554618 2.94989e-20)
(0.565465 0.555167 -2.53459e-21)
(0.542882 0.553773 -1.20038e-20)
(0.521794 0.547725 -1.79427e-20)
(0.503335 0.536249 5.29914e-20)
(0.484005 0.523332 -7.31448e-20)
(0.458973 0.507405 9.6615e-20)
(0.432865 0.488018 -3.88883e-20)
(0.41354 0.466223 -7.07667e-20)
(0.402405 0.432856 4.77656e-20)
(0.380685 0.413484 2.47931e-20)
(0.363073 0.379069 -1.01878e-21)
(0.325808 0.371304 1.02194e-21)
(0.301331 0.3465 -6.81301e-19)
(0.265917 0.310137 2.31004e-18)
(0.248155 0.287999 -5.07122e-19)
(0.248495 0.263489 2.55335e-18)
(0.252529 0.206201 -9.4681e-20)
(0.249874 0.162219 -1.7286e-21)
(0.237325 0.123412 1.52999e-21)
(0.204808 0.0821477 4.2316e-23)
(0.165053 0.0373246 -5.08415e-23)
(0.131097 -0.00950008 -5.60911e-22)
(0.118757 -0.060298 3.29362e-22)
(0.116843 -0.108421 -1.64378e-22)
(0.130409 -0.144636 -9.87294e-22)
(0.167047 -0.194354 4.37214e-22)
(0.192306 -0.230375 1.14293e-22)
(0.218342 -0.266656 7.80746e-22)
(0.245257 -0.301629 -1.20575e-21)
(0.272863 -0.331647 1.5635e-22)
(0.293642 -0.360019 1.13017e-22)
(0.306519 -0.383751 -2.64234e-24)
(0.31039 -0.404229 -6.88149e-22)
(0.311889 -0.425999 3.1526e-21)
(0.33553 -0.443923 1.52945e-21)
(0.376931 -0.456194 -4.64147e-21)
(0.422741 -0.46522 2.52844e-21)
(0.460422 -0.472864 -1.01976e-21)
(0.483078 -0.48179 1.25647e-22)
(0.495962 -0.490891 -3.36974e-22)
(0.503584 -0.499142 -9.75306e-23)
(0.507591 -0.507445 1.23321e-21)
(0.507008 -0.51812 -6.41124e-22)
(0.49552 -0.536904 1.83438e-21)
(0.471192 -0.565787 -1.97759e-20)
(0.491795 -0.562341 1.99088e-21)
(0.551559 -0.529598 3.90925e-21)
(0.612741 -0.497618 -1.80042e-21)
(0.649789 -0.484151 -3.27579e-23)
(0.669245 -0.483165 -3.52949e-22)
(0.74049 0.493746 -7.31954e-21)
(0.732048 0.495554 1.79734e-21)
(0.718355 0.502703 -8.2194e-21)
(0.701655 0.511544 -1.91459e-21)
(0.684302 0.519559 3.14272e-20)
(0.666792 0.525843 -1.00745e-20)
(0.648377 0.530327 -1.99889e-20)
(0.628683 0.533355 -2.24638e-22)
(0.607795 0.535054 1.73129e-20)
(0.586164 0.534299 -5.72602e-21)
(0.567426 0.527524 5.99614e-20)
(0.555652 0.512634 -5.70963e-20)
(0.549773 0.494622 4.26298e-20)
(0.542742 0.476735 -5.29204e-21)
(0.527409 0.460381 -4.45827e-20)
(0.501024 0.445963 1.49504e-20)
(0.471423 0.42079 5.14389e-20)
(0.45907 0.39885 -1.42782e-20)
(0.441701 0.381028 -2.21504e-21)
(0.425951 0.35566 3.96975e-22)
(0.40755 0.346105 -1.23647e-20)
(0.373127 0.315641 1.33444e-20)
(0.347759 0.290244 -3.21221e-19)
(0.298155 0.275639 1.94605e-18)
(0.301248 0.220358 -1.84217e-19)
(0.311761 0.175754 -7.73087e-22)
(0.315262 0.145743 3.84556e-22)
(0.311052 0.121056 -1.95673e-21)
(0.310335 0.102562 5.19487e-22)
(0.280121 0.0877211 6.75649e-22)
(0.268094 0.053288 2.077e-21)
(0.275775 0.0207609 -1.26083e-21)
(0.29641 -0.0382574 6.59374e-22)
(0.312157 -0.10968 8.10946e-22)
(0.321637 -0.155034 -1.17612e-21)
(0.327314 -0.196898 2.86233e-21)
(0.340903 -0.236157 -1.52322e-21)
(0.35396 -0.271501 -2.38748e-22)
(0.364792 -0.301931 -1.24715e-22)
(0.373522 -0.328615 2.70387e-22)
(0.38403 -0.351386 2.8782e-22)
(0.396619 -0.372492 4.44844e-22)
(0.414345 -0.394555 -3.61765e-22)
(0.441497 -0.41305 -6.93435e-23)
(0.471825 -0.428396 -1.83979e-23)
(0.496635 -0.440801 -1.14867e-22)
(0.510996 -0.451133 3.42799e-22)
(0.518701 -0.460906 -7.05889e-22)
(0.523679 -0.470454 5.70748e-22)
(0.527308 -0.479862 -3.97753e-23)
(0.52987 -0.489961 3.25388e-22)
(0.530487 -0.502722 -1.49586e-22)
(0.527906 -0.520609 -3.0084e-21)
(0.540813 -0.531225 -2.17503e-21)
(0.586524 -0.515731 5.58642e-21)
(0.647939 -0.485169 4.04835e-22)
(0.693096 -0.462613 -2.51523e-22)
(0.71439 -0.455637 3.79384e-22)
(0.726153 -0.454334 -4.13294e-22)
(0.746646 0.445795 -3.92803e-21)
(0.739785 0.446793 1.97811e-20)
(0.729689 0.450578 -9.77907e-21)
(0.717442 0.454841 7.45659e-21)
(0.703209 0.459033 -9.11665e-21)
(0.68718 0.46285 -1.10956e-21)
(0.670293 0.465479 -7.49943e-21)
(0.654205 0.465253 -2.33859e-20)
(0.639866 0.461239 1.81571e-20)
(0.625844 0.454781 2.31334e-20)
(0.611314 0.447247 1.85455e-20)
(0.598127 0.437586 -5.37847e-20)
(0.586359 0.425269 3.80489e-20)
(0.575224 0.413692 -5.7331e-21)
(0.564364 0.402601 4.79523e-21)
(0.550579 0.390704 -2.30081e-20)
(0.531865 0.373021 2.11556e-20)
(0.517153 0.357348 -6.07624e-21)
(0.494141 0.343379 -5.48322e-21)
(0.474573 0.329555 2.52624e-21)
(0.466755 0.316093 -1.73761e-21)
(0.449491 0.293455 -1.4629e-20)
(0.419729 0.26772 2.78877e-20)
(0.385652 0.235827 9.17739e-20)
(0.36682 0.167353 -1.06964e-20)
(0.368682 0.12619 1.24564e-22)
(0.370533 0.106272 1.40706e-21)
(0.36743 0.0768543 -1.42165e-21)
(0.370586 0.0653079 5.35821e-22)
(0.369384 0.0438194 -3.36032e-22)
(0.376843 -0.0322857 1.45621e-21)
(0.380128 -0.0802573 -1.61921e-21)
(0.390876 -0.108816 6.63371e-22)
(0.395105 -0.138143 4.51602e-23)
(0.394029 -0.168339 -6.82687e-22)
(0.393623 -0.197992 1.54949e-22)
(0.396051 -0.224414 4.17336e-22)
(0.398551 -0.24754 -1.43863e-22)
(0.401803 -0.268484 -1.50007e-22)
(0.408723 -0.287092 2.10064e-22)
(0.423117 -0.302803 -3.41716e-24)
(0.447231 -0.318824 1.97897e-22)
(0.478182 -0.337894 -1.04784e-21)
(0.504782 -0.358442 6.93166e-22)
(0.52335 -0.378127 -1.66779e-22)
(0.534948 -0.396068 -2.5466e-23)
(0.541989 -0.411048 2.80197e-22)
(0.547603 -0.423404 -3.01465e-22)
(0.553623 -0.433628 1.76888e-22)
(0.56084 -0.442136 4.82858e-23)
(0.570156 -0.449422 -2.32512e-22)
(0.583053 -0.455623 -9.75589e-23)
(0.602551 -0.459403 7.50786e-23)
(0.632461 -0.456736 2.22402e-22)
(0.672535 -0.444895 3.93099e-22)
(0.711686 -0.427992 -1.73414e-22)
(0.73255 -0.419802 2.49354e-23)
(0.74186 -0.418295 2.88398e-23)
(0.747588 -0.418848 1.06827e-23)
(0.741436 0.418282 -1.94716e-20)
(0.734157 0.420788 2.0546e-21)
(0.724276 0.42535 1.92887e-20)