/*--------------------------------*- C++ -*----------------------------------*\
  =========                 |
  \\      /  F ield         | OpenFOAM: The Open Source CFD Toolbox
   \\    /   O peration     | Website:  https://openfoam.org
    \\  /    A nd           | Version:  10
     \\/     M anipulation  |
\*---------------------------------------------------------------------------*/
FoamFile
{
    format      ascii;
    class       volScalarField;
    location    "550";
    object      epsilon;
}
// * * * * * * * * * * * * * * * * * * * * * * * * * * * * * * * * * * * * * //

dimensions      [0 2 -3 0 0 0 0];

internalField   nonuniform List<scalar> 
10435
(
0.00309396
0.00313949
0.00169625
0.00414036
0.0066051
0.00951142
0.00152128
0.00183399
0.00208334
0.00522931
0.00358832
0.00603661
0.00159214
0.00796767
0.00750141
0.00247894
0.00812148
0.00312862
0.00218411
0.00300241
0.00200046
0.00402681
0.00266937
0.00482233
0.00425173
0.00197426
0.00448675
0.00144438
0.00395958
0.00448981
0.0049656
0.00398141
0.00183883
0.00385489
0.00325904
0.00351347
0.00369671
0.00475782
0.000942501
0.00306213
0.00747866
0.00176288
0.00660903
0.00345238
0.00402331
0.00405586
0.00910147
0.00578536
0.00170112
0.00381667
0.0021052
0.00684469
0.000947477
0.00287447
0.00114446
0.00353365
0.0043959
0.0052162
0.00668247
0.00382486
0.00118798
0.00311699
0.00515815
0.00714257
0.00334816
0.00205863
0.00574945
0.0064826
0.00176081
0.00530777
0.00279513
0.00333742
0.00414872
0.00241602
0.0067038
0.00626059
0.00554541
0.00149746
0.00170988
0.00585138
0.00473054
0.00291584
0.000965848
0.00295941
0.0051764
0.00422452
0.00380665
0.00351482
0.00559219
0.00348649
0.00379895
0.00420322
0.00268576
0.00496818
0.00334708
0.00393972
0.00463833
0.00697845
0.00715656
0.0052512
0.00628741
0.00824008
0.00431844
0.00336327
0.00901152
0.0037551
0.00264177
0.00426403
0.00551023
0.00493609
0.00338774
0.00731402
0.00336733
0.00406445
0.00476351
0.00361911
0.00568805
0.00375189
0.00346441
0.00549101
0.00595114
0.00468797
0.00344486
0.00441361
0.00441893
0.00159998
0.0051054
0.00477901
0.00611336
0.00416883
0.00475594
0.00381934
0.00234684
0.00662061
0.00397214
0.00116857
0.00344285
0.00457836
0.00331786
0.00328799
0.00307505
0.00429947
0.00505742
0.00644558
0.00447818
0.00710061
0.00387835
0.00778612
0.00827745
0.0062326
0.00466117
0.00470228
0.00336895
0.00611394
0.00706183
0.00333146
0.0052222
0.00330517
0.00644676
0.00302369
0.00555162
0.00708028
0.00412614
0.00572459
0.00568733
0.00638819
0.00211296
0.00542422
0.00589136
0.00675325
0.00519645
0.0031452
0.00408344
0.00672041
0.00603692
0.00283517
0.00324032
0.00771613
0.0030221
0.00449249
0.0033003
0.0096072
0.00624524
0.00147557
0.00497555
0.00522723
0.00539094
0.00160993
0.00723682
0.00660425
0.00604981
0.0010158
0.00380847
0.00310144
0.00623429
0.00168324
0.00764151
0.00483444
0.00695167
0.00306958
0.00571939
0.00482168
0.00153177
0.00524892
0.00168605
0.00494112
0.00374217
0.00502391
0.00531417
0.00493409
0.00383309
0.0021871
0.0064014
0.00596875
0.00449676
0.00811331
0.00467721
0.00183718
0.00199091
0.00724507
0.00402714
0.00792807
0.0057576
0.00592835
0.00268784
0.00275545
0.00138662
0.0055022
0.00581273
0.00613592
0.00738004
0.00239332
0.00166403
0.00528109
0.00466066
0.00797182
0.00504055
0.0025185
0.00546159
0.00475881
0.00327901
0.00215281
0.0022822
0.00335822
0.00449987
0.00187262
0.00450848
0.0015594
0.00312705
0.00278982
0.00288867
0.00493406
0.00227111
0.00536902
0.00150406
0.00694354
0.00270808
0.00146251
0.00298587
0.0050486
0.001432
0.00570796
0.00200807
0.00576641
0.00390838
0.00740082
0.00324369
0.00366784
0.00135587
0.00550186
0.00141547
0.00154341
0.00150639
0.00317445
0.00235748
0.00576823
0.00438924
0.00582388
0.00200235
0.00156584
0.00310612
0.00771558
0.00138035
0.00616296
0.00421586
0.00147534
0.00768347
0.00115007
0.00302667
0.00412945
0.00518238
0.00335372
0.00521219
0.00151942
0.000953037
0.00274824
0.00742529
0.00338704
0.00506158
0.00392837
0.006858
0.00569555
0.00133752
0.00354635
0.00446199
0.00768753
0.00815519
0.00564198
0.00305824
0.0030419
0.00276491
0.0041024
0.00288156
0.00788698
0.0024493
0.00290873
0.00175571
0.00599627
0.00676158
0.00576694
0.00961623
0.00464839
0.00368618
0.00106862
0.00157747
0.00192075
0.0027513
0.00132085
0.00658824
0.0048577
0.00302736
0.00449593
0.00301122
0.00146725
0.00587556
0.00563221
0.00307534
0.00315525
0.00333333
0.00392968
0.00311358
0.00332862
0.00121566
0.0040688
0.00395271
0.00413349
0.0059401
0.0047099
0.00112411
0.00161707
0.00308041
0.00241488
0.00432774
0.00133698
0.0015683
0.0015245
0.00127031
0.00294415
0.00312523
0.00348269
0.00314029
0.0016237
0.00376318
0.0013982
0.00438757
0.00346075
0.00590025
0.00607108
0.00338158
0.00167013
0.00136278
0.00382738
0.00119494
0.00143615
0.00166835
0.00440142
0.00493459
0.00459728
0.00345355
0.0023542
0.00510813
0.00128162
0.00165437
0.00602082
0.00160596
0.00156211
0.00135965
0.00135413
0.00156059
0.00138406
0.00278879
0.00589326
0.0038978
0.00366263
0.00296509
0.00139645
0.00330612
0.00135529
0.00492577
0.00467634
0.00410066
0.00493494
0.00220435
0.00187098
0.0047461
0.00164116
0.00583762
0.00285352
0.00269388
0.00463204
0.00163934
0.00453816
0.00301969
0.00258851
0.00366514
0.00596916
0.00420002
0.0015239
0.00283662
0.00287278
0.00413492
0.00402667
0.00136125
0.00203918
0.00138112
0.0013163
0.00337064
4.79471e-06
4.59183e-06
4.42067e-06
4.24534e-06
4.06836e-06
3.85429e-06
3.58481e-06
3.21827e-06
2.69875e-06
5.03823e-06
4.75891e-06
4.49196e-06
4.23905e-06
3.99131e-06
3.71944e-06
3.3986e-06
3.00539e-06
2.52094e-06
5.29297e-06
4.9292e-06
4.57265e-06
4.24374e-06
3.92906e-06
3.60183e-06
3.24018e-06
2.83038e-06
2.37159e-06
5.59766e-06
5.14336e-06
4.69747e-06
4.29288e-06
3.91313e-06
3.53361e-06
3.13548e-06
2.70942e-06
2.25855e-06
5.99432e-06
5.44479e-06
4.90446e-06
4.4203e-06
3.9731e-06
3.53997e-06
3.1035e-06
2.65515e-06
2.19511e-06
6.5393e-06
5.88599e-06
5.23833e-06
4.66426e-06
4.1414e-06
3.64746e-06
3.16501e-06
2.68483e-06
2.2051e-06
7.31829e-06
6.53407e-06
5.75454e-06
5.07186e-06
4.458e-06
3.88944e-06
3.34741e-06
2.82195e-06
2.31134e-06
8.46295e-06
7.47429e-06
6.52442e-06
5.70515e-06
4.97686e-06
4.3119e-06
3.68897e-06
3.09712e-06
2.53563e-06
1.00979e-05
8.80958e-06
7.64335e-06
6.65073e-06
5.7753e-06
4.98239e-06
4.24699e-06
3.55553e-06
2.90621e-06
1.23331e-05
1.06707e-05
9.24513e-06
8.03419e-06
6.96767e-06
6.00297e-06
5.1108e-06
4.27316e-06
3.48321e-06
1.53005e-05
1.32406e-05
1.15246e-05
1.00411e-05
8.72491e-06
7.52883e-06
6.42002e-06
5.37552e-06
4.38416e-06
1.91601e-05
1.68003e-05
1.47756e-05
1.29481e-05
1.13025e-05
9.79441e-06
8.38888e-06
7.05757e-06
5.78713e-06
2.41066e-05
2.1832e-05
1.94542e-05
1.71704e-05
1.50799e-05
1.31489e-05
1.13385e-05
9.61199e-06
7.95467e-06
3.16777e-05
2.92531e-05
2.62724e-05
2.33207e-05
2.06106e-05
1.81026e-05
1.57412e-05
1.34733e-05
1.12801e-05
4.38038e-05
4.03327e-05
3.62124e-05
3.22478e-05
2.86701e-05
2.53808e-05
2.22777e-05
1.92719e-05
1.6314e-05
6.25716e-05
5.6484e-05
5.04478e-05
4.50325e-05
4.02904e-05
3.59805e-05
3.19135e-05
2.79471e-05
2.40011e-05
8.93597e-05
7.88823e-05
7.02008e-05
6.29557e-05
5.67855e-05
5.12321e-05
4.59769e-05
4.08052e-05
3.5619e-05
0.000123002
0.000108049
9.6633e-05
8.74903e-05
7.98094e-05
7.29069e-05
6.63035e-05
5.96744e-05
5.28562e-05
0.000162644
0.000144528
0.000131082
0.000120462
0.000111531
0.000103437
9.55258e-05
8.73194e-05
7.85304e-05
0.000209423
0.000190022
0.000175698
0.000164474
0.000154999
0.00014629
0.000137483
0.000127902
0.000117134
0.000267161
0.000248068
0.000234084
0.000223443
0.000214644
0.000206486
0.000197785
0.000187506
0.000174923
0.000342019
0.000324103
0.000311527
0.000302943
0.000296698
0.000291116
0.000284499
0.00027521
0.00026204
0.000442482
0.000425085
0.000414801
0.000410225
0.000409368
0.00040962
0.000408521
0.000403563
0.000392948
0.000579645
0.000558665
0.00055139
0.000553668
0.000562423
0.000573399
0.000583219
0.000588128
0.000585666
0.00076363
0.000730849
0.000728637
0.000742223
0.000766705
0.000794941
0.000823183
0.000846822
0.000856899
0.000308336
0.00030035
0.000295203
0.000292868
0.000293236
0.000296092
0.000301168
0.000308131
0.000316656
0.000326399
0.000337054
0.00034834
0.000359989
0.000371742
0.000383219
0.000394064
0.00040394
0.000412508
0.000419432
0.000424386
0.000427049
0.000427102
0.000424107
0.000417173
0.000404768
0.000388796
0.000370419
0.000350051
0.000327213
0.000303374
0.000279313
0.000255365
0.000231565
0.000208315
0.000185926
0.000164629
0.000144597
0.000125959
0.000108801
9.31665e-05
7.90605e-05
6.64446e-05
5.52613e-05
4.54676e-05
3.70241e-05
2.98788e-05
2.39554e-05
1.91507e-05
1.53351e-05
1.2366e-05
1.00977e-05
8.39248e-06
7.13053e-06
6.21275e-06
5.56184e-06
5.11955e-06
4.84409e-06
4.70694e-06
4.68727e-06
0.00034373
0.000338006
0.000335058
0.000334777
0.000336925
0.000341186
0.000347188
0.000354543
0.000362878
0.000371875
0.000381312
0.000391076
0.00040107
0.000410723
0.000419419
0.000426451
0.000431803
0.000435442
0.000437308
0.000437303
0.000435304
0.000431165
0.000424681
0.000415524
0.000403235
0.00038768
0.000369115
0.000348046
0.000325222
0.000301496
0.000277449
0.000253436
0.000229723
0.000206579
0.000184253
0.000162965
0.000142892
0.000124175
0.000106911
9.11582e-05
7.69396e-05
6.42448e-05
5.30495e-05
4.33244e-05
3.5027e-05
2.80896e-05
2.24127e-05
1.78669e-05
1.43056e-05
1.15671e-05
9.4915e-06
7.93669e-06
6.78439e-06
5.94156e-06
5.33854e-06
4.92396e-06
4.66136e-06
4.52516e-06
4.49594e-06
0.000373442
0.000370182
0.000369143
0.000370128
0.000372866
0.000377018
0.000382216
0.000388098
0.000394332
0.00040064
0.00040681
0.000412698
0.000418216
0.000423253
0.000427638
0.000431147
0.000433572
0.000434735
0.000434475
0.000432632
0.000429035
0.00042349
0.000415751
0.000405525
0.000392558
0.000376822
0.000358521
0.000338035
0.0003159
0.000292741
0.000269112
0.000245433
0.000222039
0.000199221
0.000177239
0.000156312
0.00013662
0.000118301
0.000101452
8.6133e-05
7.23704e-05
6.01628e-05
4.94878e-05
4.03034e-05
3.25435e-05
2.61143e-05
2.08938e-05
1.67371e-05
1.34866e-05
1.09834e-05
9.07954e-06
7.64617e-06
6.57745e-06
5.79034e-06
5.22148e-06
4.82454e-06
4.56624e-06
4.4239e-06
4.38013e-06
0.000372642
0.000369332
0.000368175
0.000368932
0.000371286
0.000374871
0.000379306
0.000384228
0.000389318
0.000394317
0.000399033
0.000403332
0.00040712
0.000410313
0.000412816
0.000414521
0.000415314
0.000415073
0.000413656
0.000410904
0.000406629
0.00040062
0.000392641
0.000382459
0.000369895
0.000354904
0.00033761
0.000318309
0.000297429
0.000275478
0.000252946
0.000230269
0.000207823
0.00018593
0.000164868
0.000144867
0.000126111
0.000108742
9.28552e-05
7.85066e-05
6.57161e-05
5.44718e-05
4.47342e-05
3.64374e-05
2.94893e-05
2.37725e-05
1.91501e-05
1.54727e-05
1.25885e-05
1.03534e-05
8.63814e-06
7.33283e-06
6.34808e-06
5.61366e-06
5.07599e-06
4.69522e-06
4.44209e-06
4.29671e-06
4.24337e-06
0.000352927
0.000349175
0.000347508
0.000347697
0.000349457
0.000352444
0.000356302
0.000360684
0.000365276
0.000369811
0.000374079
0.00037792
0.00038122
0.000383887
0.000385845
0.000387021
0.000387335
0.000386686
0.000384954
0.000381992
0.000377627
0.000371664
0.000363899
0.000354144
0.000342267
0.00032824
0.000312161
0.000294257
0.000274868
0.000254402
0.000233294
0.000211965
0.000190803
0.000170157
0.000150323
0.00013155
0.000114031
9.79081e-05
8.32743e-05
7.01742e-05
5.861e-05
4.85461e-05
3.99156e-05
3.26243e-05
2.65566e-05
2.15804e-05
1.75553e-05
1.43398e-05
1.17987e-05
9.80863e-06
8.26207e-06
7.06884e-06
6.15559e-06
5.46433e-06
4.95027e-06
4.57956e-06
4.32712e-06
4.17526e-06
4.10975e-06
0.000319582
0.000314895
0.000312244
0.000311456
0.000312283
0.00031443
0.00031758
0.000321415
0.000325637
0.000329978
0.000334213
0.000338156
0.000341658
0.0003446
0.000346879
0.000348405
0.00034909
0.000348833
0.00034752
0.00034502
0.00034118
0.000335827
0.000328791
0.000319923
0.000309119
0.000296365
0.000281747
0.000265457
0.000247779
0.000229062
0.000209695
0.000190076
0.000170599
0.000151617
0.000133439
0.000116318
0.000100444
8.59512e-05
7.29191e-05
6.13692e-05
5.12751e-05
4.25715e-05
3.5164e-05
2.89381e-05
2.37665e-05
1.95172e-05
1.60605e-05
1.32736e-05
1.10444e-05
9.27393e-06
7.87702e-06
6.78243e-06
5.93174e-06
5.27809e-06
4.78454e-06
4.42256e-06
4.17046e-06
4.0126e-06
3.93592e-06
0.000279222
0.000273881
0.00027041
0.000268693
0.00026855
0.000269753
0.000272044
0.00027516
0.000278839
0.000282838
0.000286936
0.000290941
0.000294682
0.00029801
0.000300794
0.000302916
0.000304261
0.000304711
0.000304146
0.000302432
0.000299424
0.000294968
0.000288927
0.00028118
0.000271642
0.00026032
0.000247304
0.000232774
0.000216972
0.000200209
0.000182843
0.000165247
0.000147814
0.000130897
0.000114787
9.97294e-05
8.58931e-05
7.33865e-05
6.22652e-05
5.25126e-05
4.40667e-05
3.68336e-05
3.06994e-05
2.55427e-05
2.12399e-05
1.76731e-05
1.47346e-05
1.23278e-05
1.03681e-05
8.78208e-06
7.50685e-06
6.48924e-06
5.68478e-06
5.05676e-06
4.57523e-06
4.21616e-06
3.9607e-06
3.79471e-06
3.70597e-06
0.000231656
0.000225818
0.000221641
0.000219066
0.000217985
0.000218237
0.000219629
0.000221965
0.000225024
0.000228586
0.000232473
0.000236473
0.000240405
0.000244098
0.0002474
0.000250191
0.000252332
0.000253653
0.000254041
0.000253315
0.000251334
0.000247952
0.000243089
0.000236672
0.000228589
0.000218899
0.000207694
0.000195163
0.000181488
0.000166964
0.000151934
0.000136747
0.000121816
0.00010747
9.39294e-05
8.14204e-05
7.00708e-05
5.9945e-05
5.10692e-05
4.33669e-05
3.67455e-05
3.10907e-05
2.62845e-05
2.22135e-05
1.87742e-05
1.58704e-05
1.34276e-05
1.13769e-05
9.66295e-06
8.2391e-06
7.06586e-06
6.10882e-06
5.33766e-06
4.72623e-06
4.25142e-06
3.89324e-06
3.63488e-06
3.46314e-06
3.3659e-06
0.000173682
0.000167646
0.000163029
0.000159846
0.000158073
0.00015761
0.000158309
0.00015994
0.000162489
0.000165925
0.00016978
0.000173914
0.000178072
0.000182011
0.000185744
0.00018909
0.000192142
0.000194837
0.000196585
0.000197028
0.000196115
0.000193824
0.000190252
0.00018529
0.000178931
0.000171175
0.000162157
0.000152021
0.000140831
0.000128819
0.000116478
0.000104166
9.23007e-05
8.11228e-05
7.07824e-05
6.12591e-05
5.27296e-05
4.54545e-05
3.91853e-05
3.37473e-05
2.90908e-05
2.51054e-05
2.16831e-05
1.87201e-05
1.61352e-05
1.38946e-05
1.19476e-05
1.02681e-05
8.81926e-06
7.55811e-06
6.47083e-06
5.55294e-06
4.79808e-06
4.19263e-06
3.71807e-06
3.35986e-06
3.10318e-06
2.93417e-06
2.83904e-06
0.00274148
0.00240419
0.00210732
0.00184042
0.00159956
0.00138365
0.00119204
0.00102267
0.000872152
0.00073931
0.000632304
0.000554251
0.000502457
0.0004707
0.00044792
0.000429303
0.000413843
0.000400665
0.000389749
0.00038204
0.000378537
0.000377886
0.000374687
0.00036222
0.000333504
0.00260547
0.00233588
0.0020652
0.00180711
0.00156829
0.00135189
0.00115878
0.000988033
0.000838864
0.000712177
0.000609785
0.00053117
0.000473518
0.00043265
0.000403894
0.000383934
0.00037078
0.000363157
0.000360284
0.000361556
0.000366264
0.000372966
0.000378708
0.000378569
0.000364642
0.00260892
0.00231948
0.00203913
0.00177457
0.00153046
0.00130982
0.00111381
0.000942346
0.000795385
0.000672988
0.000574389
0.00049749
0.000439315
0.000396588
0.000366308
0.000346245
0.000334817
0.000330854
0.000333326
0.000341237
0.000353336
0.000367797
0.000381637
0.000390096
0.000386343
0.00263108
0.00230844
0.00200901
0.00173312
0.00148239
0.0012582
0.00106112
0.00089094
0.000747195
0.000628882
0.000534039
0.000459861
0.000403258
0.000361338
0.000331741
0.000312756
0.000303193
0.000302004
0.000308229
0.000320714
0.000337897
0.000357484
0.000375925
0.000387839
0.000385724
0.00265195
0.00229862
0.00197802
0.00168862
0.00143026
0.00120276
0.00100551
0.000837498
0.000697323
0.00058302
0.000491899
0.000420801
0.000366591
0.000326548
0.000298566
0.000281154
0.000273351
0.000274181
0.000282797
0.000297986
0.0003179
0.0003397
0.000359189
0.000370631
0.000367246
0.00265966
0.00228063
0.00193994
0.00163746
0.00137224
0.00114252
0.000946246
0.000781267
0.000645168
0.00053516
0.000448055
0.000380471
0.000329235
0.000291689
0.000265816
0.000250208
0.00024399
0.000246251
0.000256195
0.000272564
0.000293313
0.000315245
0.000333784
0.000343119
0.000336493
0.00266155
0.00225483
0.00189269
0.00157744
0.0013066
0.00107617
0.000882188
0.000721208
0.000589869
0.000484691
0.000402113
0.000338588
0.000290882
0.000256307
0.000232853
0.000219129
0.000214268
0.000217407
0.000227769
0.000244058
0.000264123
0.000284599
0.000300809
0.000307277
0.000297751
0.00266762
0.00221868
0.00183142
0.00150451
0.00123047
0.00100163
0.000811677
0.000655901
0.000530239
0.000430655
0.000353293
0.000294502
0.00025099
0.000219878
0.000199126
0.00018733
0.000183596
0.000187099
0.000197076
0.000212216
0.000230337
0.000247955
0.000260721
0.000263733
0.000251325
0.00266367
0.00216031
0.00174792
0.00141368
0.00114093
0.000917089
0.00073355
0.000584225
0.000465132
0.000372109
0.000300692
0.000247439
0.000209093
0.000182008
0.000164243
0.000154431
0.000151548
0.000154873
0.000163711
0.000176774
0.000191692
0.000205206
0.000213202
0.000210745
0.000193724
0.0011369
0.00112197
0.832136
0.000695085
4.05875e-05
5.43846e-05
0.0121666
5.71213e-06
1.09743
3.51816e-06
4.74793
1.31758e-05
0.000392696
1.32413e-05
0.00935388
6.30115e-05
7.2287
0.000492349
2.4031e-06
0.159474
0.000105537
3.01875e-05
5.80814
0.000100531
4.35641e-06
8.28055e-06
4.45987e-06
0.000787441
0.000156342
8.11367
1.6764e-06
1.22524e-05
2.53773
0.000678786
7.86828
2.56685e-05
0.00364297
0.00990186
0.00405996
1.72818e-05
3.58803
2.60595e-06
1.77035e-05
0.00364715
0.00052619
4.04562e-05
7.17166
6.6951
0.279427
0.815244
6.69582
2.01191
0.000172737
0.000359645
0.0105651
0.936647
9.66242e-06
0.000125698
7.5016e-06
1.03914
7.9436e-05
0.733055
3.72867e-05
3.819e-05
5.87566e-06
0.00349679
4.72817e-06
0.000358519
0.000433821
0.63335
0.854841
3.95109e-05
1.26001e-05
0.133481
4.57739e-06
0.00010071
0.0629357
5.94618
3.42331e-06
0.00026277
0.000559968
0.000158725
7.13894e-06
5.36026
5.16917e-05
8.73347e-05
1.01881e-05
5.55716
2.58828
5.12778e-05
0.000142759
1.09759e-05
1.86226e-05
1.43698e-05
1.74244e-05
4.75237
8.43553e-06
5.45228
7.4551e-06
0.918132
0.00028051
3.49466
0.000346223
3.96061e-05
6.89174e-06
0.00050068
5.55171
0.000502003
1.20512e-05
7.84794
2.69792e-05
8.22882e-06
5.77392
3.77159e-05
0.000157466
0.284691
1.48187
1.41951e-05
0.000256915
4.9966e-06
3.11958e-06
7.31945e-06
9.59002e-05
4.291e-06
2.76537
1.6272e-05
2.11074
0.0197855
1.98393e-06
6.66606
6.73728e-06
0.112101
0.639908
0.00255355
0.00136257
1.03504e-05
0.000460771
0.000144333
5.70668e-05
0.266751
3.72267e-05
0.00343214
1.56135
2.88784e-06
0.00248253
0.000102536
0.00119658
0.00130222
6.38346e-05
8.86688
0.000444793
9.39136e-06
0.00107393
0.0151487
4.0639e-06
5.08105
6.27894e-06
1.57984e-05
0.0628791
6.91038e-06
1.85391e-05
1.00783
1.94403e-05
5.7262
2.62102e-05
6.63098
1.11686e-05
4.40258e-06
0.000116203
6.91489e-06
1.21599e-05
4.26902e-05
0.00041784
5.85118
4.35677e-06
0.00065062
0.000622647
0.355364
0.0318775
3.75841e-05
0.00153961
1.20999e-05
0.000190593
0.0017121
0.00280708
5.84941e-06
7.20792
1.26294e-05
1.19744
5.50441e-05
4.2775
1.39383
0.00371615
0.00308382
0.0111988
1.59932
4.34633e-06
2.92322e-05
0.086868
0.000234621
0.000627337
0.000121399
0.000137048
6.944e-05
0.000231491
9.04981e-06
5.58493e-06
0.000344407
0.48954
1.3015e-05
6.64921e-06
1.35868e-05
0.00144119
0.000196692
0.000588012
4.76721
1.63924e-05
1.66308e-06
7.67449e-05
0.000127158
0.000185474
3.02712e-06
4.04053e-06
0.457412
2.97291e-05
1.72867
4.2332e-05
6.54491
1.18711e-05
1.55915e-05
4.71963
2.60075e-05
1.28389e-05
4.97432e-06
0.00398319
5.54149e-06
0.0313022
0.000382042
0.0019962
0.0189903
1.54444e-06
7.79883e-05
2.09454e-05
0.00197396
1.13647e-05
8.53477e-06
1.16733e-05
0.00104076
5.65381e-05
8.25521e-06
1.21242e-05
0.000733055
3.17975e-06
0.387912
8.90965e-06
4.48984e-06
6.13481
0.0501611
0.0519
2.27455e-06
0.000476486
2.07848e-06
2.06926e-05
3.9857e-06
0.101133
4.17886e-06
1.01376e-05
0.00207358
0.012454
4.47932e-06
0.00017087
0.00433353
9.66462e-06
1.76106e-06
3.10098e-06
0.00232434
7.66909e-06
2.15453
8.24277e-06
3.04802
0.00458977
0.000479578
0.000259308
3.96851e-05
0.011368
8.36056e-05
0.000559034
6.54544e-05
5.53906
4.86258
0.0223161
2.22923e-05
1.99155e-06
6.04998
0.00200466
4.56613
4.55281
7.21259e-06
7.57051e-06
0.130847
2.28897
1.9386e-05
2.45609e-05
8.48403e-05
4.19324
1.43976e-05
0.000101788
2.45474e-06
0.259263
0.000153712
4.02152e-05
2.0852e-05
1.75308
1.98065e-06
9.61598e-06
0.00291836
7.5332
3.84272e-06
4.4389e-06
0.00392941
0.0544949
1.26085e-05
2.66962e-05
1.64608e-06
1.1504e-05
4.21459e-06
1.36479
0.000528414
6.53672e-06
0.000132815
2.41616e-05
0.0109454
0.000121698
4.29179e-06
4.53683
0.000101545
8.6594e-06
7.97557e-06
5.32266e-06
0.000417965
1.44152e-05
1.32644e-05
0.12018
1.61809e-05
0.0810574
1.58619e-05
6.47579e-05
1.33387e-05
9.46156e-06
7.69874
0.00168086
1.91545e-05
9.73915e-06
0.0417544
5.99088
2.56303e-05
0.00489061
0.00315946
1.90879e-05
8.58755
0.523169
6.72371
4.71644e-06
1.57107
2.0779e-06
8.63975e-06
7.92773e-05
7.25948
1.6184e-05
1.01314
2.61192e-05
0.0146249
0.000299106
2.12614
0.000396191
3.93006e-06
4.08475e-06
3.58292e-05
5.73489e-06
4.47378e-06
4.45702
3.79666e-05
2.71361
0.00439949
0.00360408
0.00342952
3.01219e-05
0.141011
5.29991
4.32434
0.00474525
9.46226e-06
0.000285724
1.41354
0.00136114
2.70275e-06
1.39935e-05
2.39767
1.61019e-05
0.000260597
5.83739e-06
1.77905e-05
4.81546e-05
0.220684
1.24555e-05
1.71785e-08
0.0113662
0.000361721
0.00119253
1.55386e-06
0.0617044
1.89206e-05
0.0343774
5.09098e-05
1.07272e-05
1.00613e-05
0.0802612
7.65489
1.06617e-05
1.04905e-05
3.20891e-05
6.52985e-06
6.54315e-05
0.000437333
8.15638e-05
4.17744
3.62136e-06
3.66867e-05
2.05557e-06
1.19243e-05
5.68228e-05
4.65659e-06
5.51156e-05
3.84264e-06
0.0207928
6.86908e-05
2.70694e-05
1.86411e-06
1.32453e-05
1.59071e-05
6.83557e-06
0.0189359
5.65635
0.00222976
0.000477112
0.0894677
0.000505648
0.170661
6.4677e-06
3.07766e-06
1.8725
1.43284e-05
1.8647e-05
0.0246132
1.74997e-05
0.56557
8.16035
8.98548e-05
0.00015311
0.0140211
2.31934e-05
0.00255465
0.0331866
0.00119587
3.32617
6.83813e-06
8.6068e-06
0.582528
6.27243e-06
5.38689
0.000791418
7.29525e-06
6.95328
1.48522e-05
4.34939e-06
0.000529504
3.74492e-05
5.90473e-06
0.00136412
0.000598323
0.000685854
0.00436117
5.30127e-07
1.26942e-05
5.11546
3.07043e-05
0.000153879
5.35066e-05
0.0481658
3.7447e-05
0.00939206
2.63587e-05
3.91256e-06
1.18394
1.46523e-05
1.38735e-05
0.00866706
6.51716e-05
1.88676e-05
0.925585
1.87496e-05
0.0210824
2.88182e-05
0.00143105
0.000541941
0.000812326
6.46838e-05
4.90858e-05
0.0120157
1.13613e-05
3.29969e-05
0.000666659
4.19938e-06
3.01419e-05
5.80871e-06
7.19076
3.91176
0.051014
3.88446e-06
0.00152219
1.19105e-05
4.81426
0.177671
0.0060732
0.000689053
5.46548e-05
3.78308
3.63557
8.78097e-06
5.86853e-05
0.000703219
3.56256e-05
0.00447232
0.453859
5.6466e-06
0.00216984
1.74976e-05
0.281314
0.347867
3.05963e-05
0.00368135
8.43878
3.024e-05
5.20321
1.15675e-05
0.303499
1.2676e-05
0.00011913
5.88782e-05
2.49666
0.00414167
0.00465001
1.95912e-06
0.44535
0.200467
7.49159
3.99767e-06
2.04474e-05
0.000329767
0.56773
2.30232e-06
0.00254752
1.82452e-05
0.000436059
9.0247
2.67256e-06
0.00144933
6.11641e-06
1.2072e-05
0.000653569
1.96568
6.80865e-05
0.00592461
1.04612e-05
3.3342e-05
5.70413
8.17025
0.60377
0.00018006
0.000759031
0.295914
0.000189497
0.000116336
1.40372e-05
5.73963e-06
2.30171
3.0983e-05
5.25931e-05
0.00405395
9.19466e-05
0.000100485
8.84726e-05
3.38476e-05
0.0117429
2.32851e-05
6.99211e-06
0.000554053
0.0714188
3.19615e-05
1.12571e-05
0.260905
0.000710832
2.43391e-06
3.48744e-05
0.0147577
1.07721e-05
9.59149e-05
2.34002e-06
5.42516e-05
1.32289e-05
1.97161e-05
0.00423339
7.83329e-06
0.000104231
0.000390231
0.000156325
2.3026e-06
6.247e-05
0.237855
4.71173e-05
6.03804e-06
1.23506e-05
1.26343e-05
2.18026e-05
1.09174e-05
0.648225
9.22672
0.00067653
1.95652
8.16115e-06
4.43246e-06
6.41215e-06
4.84625e-06
9.91194e-05
4.98267e-06
0.000175509
5.17705e-05
4.03156e-06
6.59612e-06
0.00732824
0.001288
3.71083e-05
0.00335482
2.85921e-05
4.83937e-05
3.28516e-06
0.000203027
0.00238656
0.579189
0.0115107
0.0397818
4.18119e-06
3.60741e-06
8.95138e-06
6.05414e-05
2.08504e-06
8.1689
2.37975e-06
0.000146511
7.85229e-06
0.634082
0.000151559
4.74962
1.60947e-06
6.63874e-06
5.42369e-06
4.09443
0.241083
0.00236402
0.000175434
1.03803e-05
4.31439e-06
4.12799e-05
1.89871
1.35264e-06
1.03497e-05
0.00303909
2.01237e-05
2.63887e-05
4.66122e-06
8.72835e-06
0.000165722
3.39612e-05
7.70022e-06
9.48669e-06
6.22106e-05
3.41011e-05
0.0236829
5.08262
1.17817e-05
0.0113251
1.11351e-05
5.17753
5.95283e-06
1.87913e-05
8.74971e-06
6.91328e-06
0.00410887
6.11317e-05
3.55851e-05
7.76e-06
0.000309257
9.46394e-06
5.54809e-05
3.67781e-05
2.68019
0.00688667
0.000302753
5.93486
0.013358
0.0909161
7.80737
2.92347e-06
6.32752e-06
6.39182e-06
6.80213e-08
2.41325e-05
0.00437249
9.85713e-05
1.63714e-05
0.000354139
6.23216e-06
1.76416e-06
0.00209371
1.2224e-05
2.5353e-06
6.20202e-06
0.000268428
0.000647466
4.28553
4.74415e-06
0.475202
0.0121285
0.285847
0.000163031
3.86715
5.61902
0.00402773
1.54131e-06
5.91676e-05
5.85872e-07
0.000226328
1.62649e-05
0.00157107
0.0132396
1.39074e-05
0.0979973
0.00203858
1.86087e-06
6.08773e-06
2.51466e-05
9.20012
0.167297
8.13436e-06
0.0155777
0.0151782
0.00024319
0.740373
1.06389e-09
7.1822e-06
0.00232786
1.13672e-06
0.00362151
0.0011938
6.44846
0.0127234
4.63085e-06
0.0131407
6.32895e-06
9.05426e-07
0.00224586
8.76926e-05
0.00018848
6.34529e-06
1.65751e-05
0.00193032
6.47726e-05
4.6278e-06
1.98573e-05
2.4273e-05
0.0007409
1.84738e-05
2.08851
0.0122858
3.27472e-05
0.0015754
4.33849e-05
0.249225
7.99476e-05
8.99268e-06
2.75266e-05
0.000300617
0.000457915
1.40722e-06
3.58314e-05
7.57793
0.126594
0.00679178
6.80409e-05
0.00102528
0.00142994
0.019554
0.135558
0.00275633
1.85058e-05
1.79229e-05
5.57494
6.96031e-06
5.71641e-06
0.000272728
1.6458
0.816373
1.28731e-05
3.43601e-05
0.839089
5.91639e-06
0.312325
0.226071
3.65891e-05
1.3191e-05
2.05302
0.00278941
0.0189804
2.03808e-05
4.93181e-06
4.27962e-06
0.000718509
0.00396746
1.50568e-05
5.70044e-06
1.70948e-05
0.0055243
1.08081e-05
0.00192792
0.0363635
4.52213e-06
1.24099e-05
0.0322752
6.16417e-06
0.000220388
9.3568e-06
0.000248744
9.84316e-06
4.05467e-06
0.00141222
3.73724e-05
1.36122e-05
1.75631e-05
0.000853776
0.000218433
4.99396
3.36424e-06
9.03476e-06
1.55318e-05
0.00668726
0.264364
0.429243
5.44141e-06
0.000655207
0.0112458
8.44222e-07
4.89387e-06
3.21568e-05
4.84687
1.21897e-05
0.270156
7.32998e-05
2.67729e-06
0.00326864
5.08681e-05
0.00824439
0.0087216
0.000946562
2.18233
2.35898
8.91813
6.58938e-06
1.74654
0.0046118
2.18271e-05
0.010222
1.69023e-05
3.21091e-05
0.0290423
5.35196e-05
0.000103094
0.000209764
0.166928
1.67862e-06
1.49008e-06
1.82952
1.15108e-05
9.37527e-05
0.00688154
0.0972092
0.00383712
1.30312e-05
0.000428305
6.00537
6.81947
0.00205917
0.000204661
0.628623
2.63427e-05
6.32678e-06
0.00230581
0.0354155
4.85277e-06
0.000255785
1.31718e-05
0.150759
8.48106e-05
0.00357603
0.0147157
1.61645e-06
2.60428e-05
1.51854e-05
0.0102491
0.00321316
0.639621
0.042797
8.20132e-05
0.000894961
0.00117348
0.000159722
0.00584795
0.000114583
5.09395e-06
6.96072e-05
4.08433e-05
3.77073e-06
0.00112827
5.12881
1.14352e-05
0.111788
2.78752e-05
0.0259217
6.87455e-06
1.96123e-05
5.44042e-06
0.566154
0.672867
0.000669503
0.000203164
1.04304e-05
9.01978e-06
0.0201245
1.95479e-06
0.00458335
0.00283593
2.41204
8.40973e-06
0.000256667
0.0223159
7.4379e-05
9.75028e-05
0.000127123
2.7159
8.87548e-06
0.000220332
0.0212286
0.0121777
8.71051e-06
0.000163509
2.19391e-06
3.68681e-05
1.12185e-05
1.38758e-05
0.000147953
9.23796e-06
0.000614394
0.0269178
0.198371
0.598278
1.89162e-05
0.00038561
0.0020679
1.55432e-06
0.000608125
3.895e-05
7.29614e-05
5.31959
7.73106e-05
0.00144636
2.13098e-05
4.52624e-06
0.454567
6.18094e-06
0.00020763
7.08244e-06
0.0125891
0.0167289
1.53745
3.97789e-06
0.012546
1.10649e-05
0.000474051
5.94243e-05
0.69525
0.00206393
0.00025844
7.92262
8.43475e-06
7.58431
2.3937e-05
0.358167
0.000122182
5.81982e-06
9.13534e-06
0.00410433
0.0117343
6.6484e-06
1.59582e-05
0.0491122
4.31949e-06
1.16413e-05
3.96866e-06
5.92359e-06
3.28086e-05
6.495
9.82434e-05
2.0638e-05
0.0150237
0.00086928
8.94047
4.20388e-06
1.90948e-05
1.31677e-05
1.82135e-05
0.000124042
3.58129e-05
3.88699
2.07006e-05
0.00331869
4.89841e-06
0.00019354
0.00382661
0.238345
1.88325e-05
1.45714e-05
1.82729e-05
0.000116225
7.16678e-06
0.000304537
4.22331
0.000302264
0.000247141
9.49032e-06
0.0212923
2.65133
0.000598814
0.0138481
7.93908e-05
0.212479
7.22082
8.37665
4.01655e-05
4.11093e-05
0.000374259
0.658839
9.00882e-05
0.24835
4.59464e-05
0.00133881
0.0510532
5.07025e-06
2.09939e-05
8.65552e-05
5.85349e-06
1.76785e-06
7.81855e-06
0.0138517
3.64668e-06
1.84633
9.43739e-06
1.28372e-05
8.39792e-06
3.90507e-06
0.000191475
6.02504e-06
0.247182
0.000747923
3.5951e-05
7.33191e-05
0.265151
4.71312
4.86847e-06
9.39144e-06
3.76144e-05
0.000344032
0.0001996
0.00048294
2.58391
7.63262e-06
8.66569e-06
0.000284055
2.73897e-05
0.000201187
0.018267
7.39395e-06
8.94609e-06
1.48351e-06
7.45439e-05
0.00146098
0.0785635
0.0121096
1.02781e-05
0.000449483
1.72441e-06
2.63141
3.18216
2.04526e-05
7.27431e-06
0.0886407
1.10143e-05
1.1399e-05
0.00656788
0.00365182
1.86519e-05
8.59913e-06
1.83727e-06
0.00178232
0.0385639
1.17974e-05
1.74679e-06
0.0172907
0.261256
4.20263e-07
1.16931e-05
9.66828e-06
2.91064e-05
0.000812637
0.000232082
1.59412e-05
0.0211699
5.03227e-05
2.19062e-05
2.39998e-05
0.000165326
1.36279e-05
5.21754
0.0302779
2.48554
0.0110293
0.00284297
0.00107108
1.16228e-05
1.85902
0.000229627
6.3507e-06
0.000128952
1.26473e-05
0.000335166
1.37977e-05
1.89907e-05
4.43487e-06
0.401503
4.74003e-06
0.00078606
0.0192975
7.37393e-05
0.000460269
0.000552977
8.37699
5.01274e-06
5.53047
5.23963
7.74181e-05
1.38557e-05
0.000313104
0.000309002
0.000193852
0.00733198
0.135614
2.50303e-05
3.96788e-06
8.84239e-06
0.00244282
2.85766
9.40167e-05
3.25425e-05
4.88903e-06
4.21964e-06
0.000104147
0.00115014
6.44746e-06
0.000117351
3.97077e-05
0.51685
2.43387e-05
0.000283995
3.98952
4.5489e-05
0.00068082
0.000191048