/*--------------------------------*- C++ -*----------------------------------*\
  =========                 |
  \\      /  F ield         | OpenFOAM: The Open Source CFD Toolbox
   \\    /   O peration     | Website:  https://openfoam.org
    \\  /    A nd           | Version:  10
     \\/     M anipulation  |
\*---------------------------------------------------------------------------*/
FoamFile
{
    format      ascii;
    class       volScalarField;
    location    "550";
    object      k;
}
// * * * * * * * * * * * * * * * * * * * * * * * * * * * * * * * * * * * * * //

dimensions      [0 2 -2 0 0 0 0];

internalField   nonuniform List<scalar> 
10435
(
0.584187
0.643117
0.568739
0.938943
1.13365
1.04492
0.554079
0.621626
0.651876
0.81648
0.771924
1.25638
0.481569
0.4592
0.461004
0.718423
0.457088
0.538924
0.661219
0.635902
0.647456
0.93604
0.737005
1.09305
0.824221
0.288056
0.408211
0.508159
0.35624
0.68651
1.03112
0.841508
0.621307
0.331847
0.846227
0.499939
0.909754
0.42562
0.216145
0.810931
0.780863
0.590613
0.415149
0.77901
0.948749
0.971735
0.928328
0.410622
0.583429
0.916629
0.665776
1.14315
0.210657
0.304377
0.231999
0.332667
1.01684
0.436037
0.407342
0.932449
0.229146
0.588722
0.423025
1.21283
0.84323
0.607751
0.383139
0.452588
0.608889
1.17208
0.302705
0.365332
0.307407
0.673646
0.464933
0.390999
1.21041
0.555594
0.597729
0.428362
1.0846
0.504764
0.205568
0.305473
1.15536
0.505972
0.561358
0.772155
0.477996
0.602982
0.845525
0.930138
0.547441
0.497809
0.651613
0.465429
1.01492
0.467975
0.416863
1.09367
0.471425
1.11774
0.526106
0.707866
1.13809
0.856057
0.600405
1.00324
1.20505
0.435219
0.827586
1.0742
0.472011
0.449411
1.01566
0.849984
1.1623
0.541015
0.747135
1.16436
1.20959
0.323515
0.581813
0.362812
0.855205
0.259495
1.09846
0.331834
1.16261
0.418469
0.347141
0.783113
0.70298
0.424874
0.39675
0.192621
0.407476
1.02366
0.684876
0.769161
0.697466
0.967836
0.368147
1.24456
1.02246
0.442255
0.380173
1.1642
0.466512
1.2598
0.379185
1.05295
0.603375
1.22942
1.05854
0.338696
0.930953
0.629681
0.942097
0.645279
1.15861
0.4219
0.894413
1.22682
0.471256
1.21887
0.664636
1.1714
1.25209
1.24576
0.93572
0.271247
0.370745
0.447111
1.25537
0.584416
0.540966
0.462465
0.742342
0.378897
0.70446
1.11502
1.27052
0.246527
1.07121
0.369739
0.358025
0.57766
1.17196
1.20573
1.24033
0.20251
0.398545
0.442132
1.00824
0.59355
0.444654
0.477711
0.443645
0.811928
0.480406
0.415242
0.50208
0.432529
0.544993
1.01079
0.817242
1.10391
0.419444
1.10324
0.336469
0.65705
1.25684
1.25888
0.399497
0.46673
0.484657
0.247986
0.290534
0.419219
0.354612
0.461075
0.408128
0.421022
0.320595
0.767893
0.249109
0.459088
1.10563
0.390315
0.460952
0.711407
0.267996
1.14281
0.438737
0.453377
1.11727
0.318746
1.18736
0.96046
0.711798
0.287521
0.263251
0.326198
0.953699
0.621893
0.438132
0.574685
0.292665
0.530748
0.291399
0.499738
0.544403
1.17387
0.562423
1.21799
0.262933
0.552687
0.309302
0.409318
0.544117
1.02723
0.285437
1.23874
0.508397
0.447181
0.653299
0.866785
0.228414
1.08463
0.536946
0.573342
0.56525
0.716233
0.316172
1.20967
0.420027
1.05803
0.643378
0.576607
0.648072
0.452433
0.525529
0.452953
0.526151
0.221368
1.18756
0.231942
0.304823
0.352242
0.419386
0.712224
0.405281
0.568784
0.219967
0.300156
0.441853
0.541802
0.980182
0.859413
0.454572
1.22583
0.511974
0.323413
0.909904
0.467172
0.464298
1.2038
0.74585
0.300932
0.666009
0.388645
0.483363
1.18665
0.715982
0.304971
0.258101
1.1795
0.449318
1.22319
1.13833
0.397114
0.560955
0.199375
0.576948
0.551268
0.344516
0.501106
0.428957
0.433961
0.808016
0.356206
0.294699
0.53793
1.22095
0.440496
0.30871
0.300784
0.301006
0.355936
0.36653
0.353369
0.225585
0.371602
0.358653
0.373986
0.440246
0.444325
0.196285
0.579977
0.293433
0.623401
0.397018
0.49294
0.572833
0.550747
0.441919
0.760012
0.316376
0.322856
0.304491
0.264504
0.343386
0.223801
0.386966
0.384561
0.444565
1.26772
0.375635
0.584677
0.247218
0.40437
0.417414
0.528128
0.225355
0.408713
0.423439
0.426103
0.32672
0.313847
0.481388
0.23941
0.590566
0.430969
0.583678
0.568068
0.482624
0.465656
0.563297
0.510354
0.772966
0.395084
0.321218
0.341057
0.30866
0.520124
0.323358
0.434459
0.468222
0.392872
0.416961
0.383722
0.276558
0.616108
0.426076
0.589558
1.23893
0.280989
0.337141
0.445125
0.56343
0.448021
0.356662
0.305774
0.338415
0.434522
0.372354
0.534291
0.304866
0.342867
0.366688
0.324315
0.395458
0.228869
0.200635
0.498369
0.312229
0.0705115
0.0685506
0.0661978
0.0633574
0.0601542
0.056408
0.052074
0.04695
0.0407282
0.073125
0.0706839
0.0677834
0.064561
0.0610536
0.0571272
0.0526813
0.0476332
0.0419227
0.0751079
0.0721723
0.068787
0.0652018
0.0614101
0.0572929
0.0527652
0.0478039
0.0424774
0.0766381
0.0732279
0.0694064
0.0654902
0.0614422
0.0571577
0.0525708
0.0476871
0.0426032
0.0778606
0.0740397
0.0698269
0.0656115
0.061333
0.0569027
0.0522679
0.0474412
0.0425017
0.0789416
0.0747903
0.0702206
0.065729
0.0612389
0.0566759
0.0519948
0.047208
0.0423854
0.0801176
0.0756526
0.0707369
0.0659807
0.0612902
0.0566003
0.0518698
0.0471136
0.0424046
0.0817196
0.0767665
0.071492
0.066476
0.0615923
0.0567754
0.0519862
0.0472436
0.0426271
0.0837983
0.0781903
0.0725646
0.0672995
0.0622305
0.0572828
0.0524177
0.0476529
0.0430665
0.0861353
0.0799105
0.0740051
0.0685201
0.0632782
0.058195
0.0532335
0.0484058
0.0437755
0.0884596
0.0818821
0.0758488
0.0701992
0.0648047
0.0595846
0.0545101
0.0495909
0.0448817
0.0904463
0.0840849
0.0781444
0.0724056
0.0668852
0.0615323
0.0563362
0.0513123
0.0465239
0.0916617
0.0866421
0.0810091
0.0752455
0.0696171
0.0641322
0.0588064
0.0536647
0.0487861
0.0941115
0.0901305
0.0847133
0.0788913
0.0731321
0.0674959
0.0620195
0.0567385
0.051744
0.0991123
0.0951474
0.0895742
0.083545
0.077579
0.0717429
0.0660754
0.0606128
0.0554378
0.107162
0.10199
0.0957863
0.0893527
0.0830749
0.0769722
0.0710644
0.065384
0.0600083
0.117644
0.110432
0.103288
0.0963196
0.0896501
0.0832244
0.0770312
0.071099
0.0655142
0.128305
0.119637
0.111721
0.104275
0.0972252
0.0904709
0.0839755
0.0777608
0.0719202
0.137847
0.128817
0.120636
0.112962
0.105665
0.0986574
0.0919
0.0854116
0.0792818
0.146181
0.13774
0.129813
0.12223
0.114898
0.107785
0.100867
0.0941716
0.0877935
0.154084
0.146734
0.139398
0.132164
0.125023
0.117994
0.111068
0.104271
0.0977091
0.162666
0.156465
0.149824
0.143085
0.136337
0.129601
0.122863
0.116127
0.109504
0.173203
0.167727
0.161664
0.155474
0.149294
0.143079
0.136774
0.130333
0.123868
0.187176
0.181272
0.175453
0.169827
0.164393
0.158956
0.153389
0.147539
0.141507
0.205822
0.197493
0.191617
0.186645
0.18217
0.177784
0.173315
0.168479
0.162812
0.0877065
0.0871501
0.0874875
0.0887421
0.0909156
0.0939783
0.0978821
0.102558
0.107935
0.113929
0.120462
0.127457
0.134832
0.142505
0.150361
0.158286
0.16616
0.173854
0.181231
0.18815
0.19446
0.200004
0.204588
0.207892
0.209408
0.209543
0.208531
0.20641
0.202951
0.198553
0.19343
0.187667
0.181248
0.17432
0.167015
0.159457
0.151762
0.144039
0.136394
0.12892
0.121695
0.114769
0.108176
0.101964
0.0961897
0.0909125
0.086181
0.0820311
0.0784729
0.0755027
0.0730964
0.0712147
0.0698133
0.0688405
0.0682506
0.0679994
0.0680523
0.0683806
0.0689608
0.0917983
0.0916558
0.0923975
0.0940388
0.0965618
0.0999235
0.10406
0.108894
0.114343
0.120327
0.126776
0.133636
0.140853
0.148278
0.155745
0.163058
0.17015
0.176946
0.18336
0.189296
0.19465
0.199308
0.20314
0.205984
0.207639
0.207979
0.206987
0.204719
0.201327
0.197019
0.191945
0.186195
0.179843
0.172984
0.165722
0.158169
0.150432
0.14262
0.134835
0.127169
0.119705
0.112511
0.105655
0.0992141
0.0932686
0.0878928
0.0831429
0.07905
0.0756268
0.0728459
0.0706469
0.0689579
0.0677075
0.0668334
0.0662904
0.0660427
0.066065
0.0663325
0.0668186
0.094312
0.0945321
0.0955555
0.0973835
0.0999926
0.103335
0.107346
0.111949
0.117063
0.122609
0.128512
0.134704
0.141123
0.1477
0.15435
0.160976
0.167478
0.173758
0.179715
0.185244
0.190234
0.194564
0.198097
0.20068
0.202164
0.202459
0.201538
0.199434
0.196236
0.192083
0.18711
0.181428
0.175137
0.168339
0.161141
0.153654
0.145986
0.138244
0.130531
0.122941
0.115563
0.108482
0.10178
0.0955377
0.0898319
0.0847235
0.080252
0.0764305
0.0732438
0.0706512
0.0685944
0.067008
0.065828
0.0649984
0.0644704
0.0642079
0.0641829
0.0643762
0.0647662
0.0920205
0.0922208
0.093193
0.0949308
0.0974041
0.100561
0.104335
0.108651
0.113431
0.1186
0.124086
0.129825
0.135753
0.141807
0.147918
0.154011
0.160005
0.165817
0.171354
0.176515
0.18119
0.185256
0.188584
0.191039
0.192494
0.19286
0.192092
0.1902
0.187246
0.18333
0.178569
0.173076
0.166966
0.160354
0.153353
0.146081
0.138651
0.131172
0.123749
0.116481
0.109459
0.102769
0.0964898
0.0906936
0.0854392
0.0807667
0.0766944
0.0732163
0.0703049
0.0679164
0.0659974
0.0644926
0.0633502
0.062525
0.0619798
0.061685
0.0616161
0.061758
0.0620921
0.0867423
0.086852
0.0876939
0.0892625
0.0915299
0.0944483
0.0979555
0.101981
0.106451
0.111291
0.116433
0.12181
0.127361
0.133023
0.138734
0.144428
0.150036
0.155481
0.160676
0.165528
0.16993
0.173768
0.176921
0.179267
0.180696
0.181126
0.180507
0.178836
0.176148
0.172516
0.168037
0.162821
0.156986
0.150656
0.143958
0.137014
0.129947
0.12287
0.115892
0.109111
0.102614
0.0964783
0.0907685
0.0855359
0.0808166
0.0766287
0.0729723
0.0698312
0.0671755
0.0649663
0.0631607
0.0617159
0.0605927
0.0597569
0.05918
0.0588392
0.0587163
0.0587982
0.0590679
0.0791831
0.0791124
0.0797326
0.0810409
0.0830148
0.0856132
0.0887812
0.0924554
0.0965679
0.101051
0.105837
0.110862
0.116066
0.121387
0.126764
0.132135
0.13743
0.142578
0.147497
0.152098
0.156282
0.159942
0.162967
0.165246
0.166678
0.167187
0.166722
0.165272
0.162859
0.159538
0.155393
0.150529
0.145069
0.139143
0.132884
0.126423
0.119883
0.113382
0.107024
0.100899
0.0950799
0.0896244
0.0845743
0.0799582
0.0757905
0.0720732
0.0687984
0.0659492
0.0635026
0.0614314
0.0597063
0.0582986
0.0571814
0.0563307
0.0557256
0.0553488
0.0551852
0.0552238
0.0554485
0.0701493
0.0699039
0.070289
0.0713072
0.0729443
0.0751685
0.0779358
0.0811932
0.0848826
0.0889437
0.0933168
0.0979429
0.102764
0.107721
0.112755
0.117804
0.122801
0.127673
0.13234
0.136717
0.140708
0.144212
0.147127
0.149353
0.150794
0.15138
0.151063
0.149831
0.147697
0.144707
0.14094
0.136496
0.131507
0.126108
0.120431
0.114614
0.108774
0.103022
0.097455
0.0921412
0.0871281
0.0824459
0.078111
0.0741307
0.0705035
0.0672225
0.0642805
0.0616679
0.059375
0.0573905
0.0557018
0.0542949
0.0531557
0.0522702
0.0516247
0.0512061
0.0510026
0.0510041
0.0511949
0.0594666
0.0590147
0.0591231
0.0598032
0.0610497
0.0628428
0.0651495
0.0679295
0.0711355
0.0747162
0.0786236
0.0828009
0.0871949
0.0917503
0.0964126
0.101127
0.10583
0.11044
0.114879
0.119049
0.122861
0.126215
0.129029
0.131215
0.132671
0.133342
0.133184
0.132188
0.13035
0.127718
0.124375
0.120423
0.116014
0.111289
0.106357
0.101359
0.0964033
0.0915785
0.0869726
0.0826093
0.0785071
0.0746655
0.0710772
0.0677335
0.0646269
0.0617429
0.0590867
0.0566552
0.0544555
0.0524969
0.0507885
0.0493357
0.0481388
0.0471968
0.0465045
0.0460524
0.0458296
0.0458257
0.046022
0.0464123
0.04569
0.0454557
0.0457354
0.046539
0.0478556
0.0496579
0.0518998
0.0545831
0.0577023
0.0611481
0.0648771
0.0688231
0.0729252
0.0771767
0.0815203
0.0859618
0.090449
0.0947716
0.0987799
0.102407
0.105592
0.108303
0.110449
0.11196
0.112767
0.112836
0.112146
0.110652
0.108384
0.1055
0.102125
0.09844
0.0945672
0.0906012
0.0865605
0.0825875
0.0789216
0.0754672
0.0721559
0.0690297
0.0660647
0.0632292
0.0604933
0.0578348
0.055285
0.0528475
0.0505604
0.0484327
0.0464392
0.0446134
0.0430105
0.0416768
0.0406325
0.0398694
0.0393904
0.0391851
0.0392373
0.0395163
0.3113
0.28634
0.264654
0.244806
0.226261
0.20888
0.192651
0.177488
0.163199
0.149805
0.138361
0.129503
0.123208
0.118923
0.115334
0.111898
0.108582
0.105368
0.102358
0.0998001
0.0979576
0.0967718
0.0956307
0.0937386
0.0902015
0.294686
0.277967
0.259527
0.240893
0.222722
0.20535
0.188947
0.173558
0.159262
0.146341
0.135215
0.126075
0.118825
0.113143
0.108591
0.104861
0.101799
0.099325
0.0974219
0.0961054
0.0953865
0.0951945
0.0952715
0.0951004
0.0937651
0.290212
0.272886
0.254501
0.235865
0.217536
0.199904
0.183223
0.167661
0.15342
0.140743
0.129807
0.120629
0.113085
0.106966
0.102059
0.0982117
0.0953263
0.0933304
0.0921641
0.0917683
0.092059
0.0929053
0.0940512
0.0950348
0.0951164
0.28728
0.268041
0.248695
0.22951
0.210823
0.192939
0.176107
0.160537
0.146434
0.133973
0.123224
0.114136
0.106574
0.100382
0.0954313
0.0916414
0.0889593
0.0873302
0.0866875
0.086925
0.087905
0.089424
0.0911535
0.0925682
0.0928542
0.284078
0.263046
0.242478
0.222495
0.203316
0.185163
0.168239
0.152727
0.13879
0.126534
0.115974
0.107026
0.0995608
0.0934475
0.0885912
0.0849389
0.0824564
0.0811004
0.0807987
0.0814214
0.0827753
0.084576
0.0864116
0.0877196
0.0877857
0.279854
0.257318
0.235548
0.214738
0.195067
0.176683
0.159722
0.144315
0.130565
0.118526
0.108174
0.0994142
0.092119
0.0861702
0.0814837
0.0780115
0.0757204
0.0745677
0.0744694
0.0752758
0.0767497
0.0785482
0.0802063
0.081153
0.0806754
0.275007
0.250906
0.22787
0.206226
0.186103
0.167546
0.150599
0.135329
0.121789
0.109984
0.0998698
0.0913436
0.0842779
0.0785525
0.0740804
0.0708067
0.0686881
0.067673
0.0676638
0.0684899
0.0698805
0.0714525
0.0727171
0.0731329
0.0720462
0.269959
0.243725
0.219271
0.196836
0.176356
0.157718
0.140845
0.125747
0.11244
0.100893
0.0910463
0.0827991
0.0760235
0.0705734
0.0663506
0.0632853
0.0613158
0.0603758
0.0603566
0.0610652
0.0622038
0.0633422
0.0640285
0.063722
0.0618488
0.264111
0.235329
0.209455
0.186406
0.16576
0.14718
0.130474
0.115566
0.102497
0.0912336
0.0816705
0.0737455
0.0673485
0.0622266
0.0582804
0.0554296
0.0535725
0.052637
0.0525117
0.0529847
0.0536978
0.0542361
0.054105
0.0526566
0.0494658
0.385933
0.39487
1.14541
0.116733
0.0228899
0.0277937
0.585692
0.0148312
1.38444
0.0296218
3.24745
0.0213343
0.268539
0.0120805
0.833117
0.0314094
4.9145
0.108898
0.0307024
0.596101
0.122615
0.0404654
4.23757
0.0599747
0.0141417
0.0150657
0.0142625
0.0850429
0.147258
5.34236
0.0348168
0.0164168
2.73367
0.340121
5.21562
0.0178378
0.71025
0.843556
0.831344
0.036517
2.96586
0.00139783
0.0258583
0.253181
0.111673
0.0698008
4.04549
3.72833
0.424803
1.31313
3.88182
1.98675
0.173836
0.0992346
0.552142
1.25337
0.0116083
0.145309
0.0125847
1.14571
0.0276252
1.05821
0.0220187
0.0383795
0.0148806
0.266913
0.0326788
0.102058
0.280812
1.04856
1.19031
0.0532585
0.0156861
0.590516
0.0138479
0.122688
0.667446
3.72958
0.0103028
0.0925244
0.30714
0.0438147
0.0156292
3.33736
0.0243192
0.0303132
0.0153267
3.60112
2.75865
0.0596098
0.0657491
0.0445892
0.0371839
0.0222806
0.0165948
3.27342
0.0148964
3.43714
0.00521488
1.05587
0.0572916
2.94792
0.0641396
0.0584415
0.0127603
0.101339
4.13862
0.289298
0.0103645
5.25454
0.0366979
0.0147878
4.45022
0.0572352
0.166029
0.432932
1.79311
0.0352538
0.218039
0.0111904
0.00189053
0.0145099
0.0591528
0.013872
2.88323
0.0242276
2.06888
0.302962
0.00972909
3.73302
0.0152257
0.570587
1.03785
0.700835
0.143975
0.0153762
0.103563
0.0394369
0.0223999
0.704728
0.0535397
0.721895
1.44596
0.00178168
0.138095
0.0447953
0.137791
0.21215
0.0305818
5.579
0.106589
0.0159095
0.130721
1.21412
0.0138883
3.23446
0.013652
0.0345451
1.05835
0.0192615
0.0254882
1.32254
0.0256914
3.5464
0.032338
3.76865
0.0121474
0.0141231
0.0580473
0.0135506
0.0117988
0.0432013
0.105843
3.50859
0.0395544
0.107278
0.275441
0.686752
0.284952
0.0533675
0.476309
0.0153105
0.184483
0.459503
0.260673
0.00738021
3.95238
0.0105447
1.65232
0.0245863
2.75473
1.33742
0.507331
0.67391
0.916302
2.01552
0.0136906
0.038877
0.226332
0.202291
0.336087
0.079287
0.0393873
0.0268518
0.0645882
0.0289672
0.0337133
0.0614414
0.749854
0.0334705
0.0127337
0.0203361
0.476914
0.060106
0.150594
3.49703
0.0155423
0.00629384
0.0815486
0.0818312
0.0342762
0.00187032
0.0138035
0.789074
0.0404776
1.95343
0.0484108
4.61786
0.00962217
0.0163148
3.09175
0.0178076
0.0150476
0.0117959
0.803219
0.0304304
1.05262
0.0522376
0.497602
1.22229
0.0337925
0.0278403
0.0276546
0.18716
0.0155211
0.0149668
0.0180125
0.163181
0.0300594
0.0167883
0.00880127
0.118011
0.0302301
0.602344
0.0114768
0.0136224
4.59192
0.67987
1.07381
0.0312833
0.104328
0.00995606
0.0175317
0.0137921
0.584282
0.0133932
0.0256803
0.153943
0.571684
0.0142121
0.144791
0.539734
0.00684266
0.00620485
0.0314969
0.162753
0.0348867
2.15462
0.0117599
2.32239
0.326876
0.117116
0.0903994
0.0682965
0.279584
0.0266868
0.10641
0.060377
3.62909
3.00139
0.948521
0.027802
0.00150277
3.7729
0.631724
3.43885
3.81499
0.0423584
0.0207919
0.419254
1.91628
0.0260427
0.0309
0.0304152
3.70534
0.025389
0.118516
0.0342637
0.699774
0.0415313
0.055185
0.0524238
2.13104
0.00964761
0.00635486
0.680371
4.18504
0.0302984
0.0141328
0.971366
0.964024
0.0212263
0.031261
0.0332786
0.0155367
0.0132288
1.69327
0.295595
0.0428215
0.147544
0.0316417
0.896884
0.0268497
0.0299179
3.21675
0.0333201
0.0161395
0.0162774
0.0039439
0.102156
0.0205736
0.0216976
0.44663
0.0507418
0.567302
0.0152626
0.0278057
0.0113738
0.0151648
4.12377
0.321844
0.0367628
0.00356359
0.987223
3.76831
0.0370252
1.1244
0.228853
0.0256492
4.37547
0.816818
4.57458
0.0128581
1.83868
0.00137498
0.0150723
0.0473171
4.1302
0.01707
1.49838
0.0582775
1.21501
0.158485
2.26909
0.269047
0.0124261
0.0122333
0.0430945
0.0159663
0.0298949
3.79757
0.036964
2.85177
0.290471
0.251493
0.886816
0.0353437
0.571424
3.52543
2.76604
0.27981
0.0279266
0.103783
1.78524
0.435514
0.0295862
0.0238993
2.63135
0.0334271
0.145837
0.0149304
0.0267575
0.0238253
0.849758
0.0210834
0.000141623
0.688419
0.11027
0.298791
0.0327381
0.678299
0.0171861
0.359846
0.0215437
0.0190691
0.0207643
0.241915
4.11702
0.0230705
0.042811
0.0362455
0.0177666
0.0607649
0.0703433
0.0513786
2.85223
0.00264288
0.0396198
0.0355558
0.0164528
0.0239556
0.0134873
0.06306
0.0107289
0.835656
0.042786
0.0372314
0.00151432
0.011578
0.0225255
0.0192149
1.247
3.6928
0.24188
0.292638
0.359183
0.0635692
0.486236
0.0125669
0.00999976
2.07572
0.0208525
0.0245654
0.332833
0.0515363
0.988636
4.2361
0.0295195
0.0667269
0.333952
0.0291594
0.252599
0.686395
0.436151
2.47115
0.0150066
0.0133406
0.915038
0.0178171
3.59496
0.149615
0.0148971
4.71818
0.0221236
0.0137865
0.302896
0.0603225
0.0140033
0.231825
0.184993
0.157752
0.824675
0.000868052
0.0211227
3.24303
0.0196936
0.0411307
0.0613627
0.957827
0.0525092
0.869762
0.0261417
0.0124159
1.57904
0.0167693
0.0138628
0.836254
0.0235103
0.0342792
1.40995
0.0262298
0.874263
0.0181181
0.145259
0.264021
0.370885
0.0252876
0.0238297
0.677058
0.0172075
0.0372438
0.332632
0.0380482
0.0563948
0.00704821
4.11874
3.55274
0.234131
0.0124641
0.157434
0.0403944
2.99626
0.619261
0.175081
0.344412
0.0694289
2.66655
3.13344
0.0290079
0.0534032
0.108718
0.0544469
0.189412
0.797339
0.0114901
0.302446
0.0267064
0.488812
0.554805
0.0282339
0.932331
5.46509
0.039103
3.92497
0.00449514
0.622119
0.019641
0.0262381
0.0226685
2.37851
0.766115
0.805338
0.00975381
0.695759
0.354167
4.18118
0.0138279
0.0494219
0.248122
0.85831
0.036799
0.680928
0.0274236
0.278531
5.66533
0.0295922
0.161092
0.0119467
0.0169171
0.116722
2.28954
0.0764952
0.755242
0.0135128
0.0207427
4.43073
4.28381
0.914311
0.0341988
0.123551
0.701018
0.185706
0.0755051
0.0413668
0.0146022
2.55315
0.0381086
0.0270539
0.984972
0.0679607
0.0423182
0.034182
0.0363548
1.06357
0.0527598
0.0120029
0.30837
0.258824
0.0201647
0.0148346
0.535042
0.0773568
0.00183399
0.0377234
0.279209
0.0122603
0.0290857
0.0303104
0.0554258
0.0197176
0.0274376
0.819432
0.0149234
0.053772
0.0837238
0.159583
0.00850669
0.0281171
0.545823
0.0465884
0.0149978
0.020923
0.0480079
0.0215539
0.0196687
0.880965
4.57106
0.0774844
2.28062
0.0165091
0.0139101
0.014646
0.00478846
0.0448637
0.0107975
0.160331
0.0511748
0.0135819
0.014059
0.782646
0.154571
0.015027
0.25534
0.0369734
0.0257588
0.00788398
0.0724949
0.293997
0.810536
1.04261
1.02793
0.00627028
0.0296179
0.00313499
0.0736057
0.0303329
4.28812
0.0338065
0.115802
0.0139953
0.948618
0.0797804
3.18634
0.00111374
0.0148358
0.0143345
3.57924
0.55437
0.207593
0.177026
0.0190865
0.0318667
0.0222276
1.66767
0.00128266
0.0185552
0.730234
0.0169533
0.0597492
0.0300244
0.00630655
0.166069
0.0352903
0.015885
0.0244521
0.0179886
0.0410223
0.161648
3.89564
0.0171925
0.739439
0.0226054
3.53616
0.0146132
0.0499134
0.0168092
0.0134582
0.997561
0.022711
0.0396933
0.0127015
0.0953073
0.0123717
0.0638341
0.0555941
2.03459
0.759124
0.090904
3.48649
0.87527
0.975999
5.14872
0.030988
0.0138735
0.0149986
0.00031038
0.0239765
0.310637
0.0394721
0.016286
0.255726
0.0380471
0.0350519
0.206091
0.0188141
0.0355261
0.0148764
0.0879445
0.325706
3.63702
0.0304491
0.678413
0.483823
0.578279
0.119616
3.206
3.63967
0.179728
0.00607658
0.028197
0.000678878
0.0845111
0.0227578
0.542872
0.399525
0.0467898
1.01297
0.249643
0.00776638
0.0149631
0.017641
4.5499
0.456586
0.0158837
0.587064
1.27447
0.205917
1.05796
2.7528e-05
0.0157073
0.225502
0.00134309
0.411447
0.321557
4.54214
1.11478
0.0132935
1.14202
0.00967304
0.00132289
0.210687
0.0386033
0.04586
0.0177656
0.0253387
0.212179
0.0287398
0.0112301
0.0269784
0.0220707
0.130615
0.0339475
1.83181
0.850227
0.0403323
0.295255
0.0421963
0.693592
0.0325438
0.0433995
0.0578773
0.167035
0.126831
0.00162842
0.0543585
4.10559
0.401811
0.485439
0.0242712
0.227211
0.516446
1.226
0.420424
0.693201
0.014568
0.0529793
4.06228
0.00435541
0.0149058
0.0841518
2.05387
1.13531
0.0155324
0.0195376
1.32483
0.0145591
0.631578
0.674517
0.0536902
0.0151177
2.07614
0.185765
0.970878
0.0288952
0.0146826
0.00411099
0.205805
0.729395
0.0214081
0.0149396
0.014299
0.455396
0.0176717
0.187217
0.782629
0.0306747
0.0198146
0.261529
0.0311395
0.174191
0.0144232
0.151564
0.0302036
0.0132312
0.511602
0.050773
0.0479426
0.0331663
0.135326
0.168993
3.38075
0.00762803
0.0273671
0.0217848
0.769503
0.703463
0.761964
0.00977946
0.338853
0.869903
0.00103378
0.0133006
0.016416
3.12794
0.0312394
0.762081
0.0388936
0.00198086
0.565493
0.0255978
0.191343
0.216325
0.190472
1.83254
1.87991
4.488
0.0310846
2.1174
0.712774
0.0562075
0.567872
0.0163227
0.0162919
0.399986
0.0215593
0.0762614
0.123351
0.45866
0.00933938
0.0082955
2.20725
0.0131231
0.0321397
0.762014
0.355735
0.950146
0.0439359
0.0959772
3.49293
4.73405
0.646238
0.174775
1.22255
0.022954
0.00763744
0.212303
0.264952
0.0321589
0.100647
0.0179504
0.613546
0.0432587
0.388591
0.974578
0.00118192
0.0161998
0.0448028
0.332107
0.832456
0.932761
0.179263
0.0737784
0.0906934
0.13846
0.0795578
0.376474
0.13885
0.0138889
0.0254523
0.0198978
0.00623076
0.250457
3.5362
0.0124064
0.388543
0.0610661
1.03975
0.0386304
0.0169339
0.0146422
0.921008
1.00636
0.0749949
0.151765
0.016559
0.0104421
0.909585
0.0361982
1.07809
0.756231
2.53685
0.0143416
0.0922895
0.913353
0.0317665
0.0635121
0.038067
2.76236
0.0361952
0.0488142
0.981031
0.733555
0.0132657
0.0742527
0.0334461
0.0517894
0.0134761
0.0120784
0.148959
0.00998304
0.108678
0.31064
0.644872
0.956277
0.0263451
0.0897722
0.258971
0.00828666
0.136946
0.0225745
0.0237798
4.2628
0.0378369
0.159783
0.0207559
0.014073
0.690752
0.0306749
0.0877276
0.00624252
0.530474
0.624626
1.85469
0.0136871
0.632668
0.0168356
0.112686
0.0323806
0.90668
0.526203
0.0857929
5.25288
0.0154856
4.11625
0.0177764
0.594578
0.0437951
0.0149491
0.0351326
0.417747
0.869841
0.0114608
0.0437238
0.460515
0.0133588
0.0466719
0.0134075
0.00520654
0.0303246
3.70648
0.0531981
0.0222629
1.25549
0.122252
4.49209
0.00602522
0.0512185
0.0147159
0.0300935
0.070186
0.0176878
3.46743
0.0326345
0.235771
0.0144366
0.0807257
0.250086
0.486005
0.0287236
0.040166
0.0465941
0.0654712
0.0177626
0.107311
2.75565
0.0934878
0.131284
0.0158051
0.946316
2.73664
0.0963281
0.358532
0.0344053
0.513532
4.75044
4.32903
0.0198028
0.0197968
0.0841335
0.969229
0.0765137
0.55646
0.0487423
0.156166
0.753585
0.012157
0.0384304
0.032225
0.0305523
0.0355729
0.0180807
0.234638
0.0302229
2.21551
0.0307707
0.0157256
0.00963864
0.0296595
0.178169
0.0131727
0.695876
0.304722
0.020811
0.0486702
0.453228
3.14265
0.0140733
0.0198427
0.0538781
0.114476
0.0855507
0.0937209
2.07223
0.0144314
0.032233
0.226751
0.0179151
0.0600004
0.949355
0.0131726
0.0151404
0.00165136
0.0209457
0.435047
0.33473
0.596924
0.0346223
0.0848347
0.0357793
2.57073
2.82269
0.0262488
0.0310946
1.03799
0.0300815
0.0134237
0.895155
0.168949
0.0253272
0.0316406
0.00821028
0.163175
0.575495
0.0204268
0.00958371
0.799734
0.487086
0.000823922
0.0143829
0.0181664
0.0612662
0.130615
0.203646
0.0185077
1.19376
0.0211732
0.0548763
0.0177374
0.161406
0.0141889
3.59517
0.725651
2.57381
0.728362
0.780019
0.122496
0.0172112
2.01538
0.189958
0.0149958
0.067924
0.0138113
0.0747847
0.0202712
0.0167258
0.0117513
0.754414
0.0132874
0.10889
0.909942
0.0233098
0.0969871
0.116466
4.32703
0.00587532
3.66693
3.3941
0.0284871
0.0122743
0.0860421
0.09258
0.0757117
0.562749
0.417756
0.0560067
0.0130189
0.0317541
0.476193
2.66382
0.0410804
0.0512501
0.0131628
0.0119166
0.0368203
0.121054
0.0306879
0.0339686
0.0196482
0.822488
0.0372325
0.0814808
3.2464
0.024975
0.12456
0.0713198
0.207083
0.108037
0.09413
0.224699
0.0260934
0.226758
0.382315
0.0198166
0.270163
0.840113
0.0243782
0.045865
0.0571674
0.727538
0.0173922
0.284682
0.0415725
0.927696
1.16299
0.329058
0.751219
0.0328938
0.0343018
0.476652
0.532552
0.0438475
0.0550926
0.0150507
4.12294
0.0574256
0.0856753
0.00878595
0.0677542
0.202082
0.0117434
0.0147498
0.0127616
1.00145
0.425165
0.0293161
0.0686091
0.0314552
0.0176141
0.0211107
0.875531
0.0631001
0.313033
2.01988
0.207359
0.000656654
0.692954
0.16569
0.67854
0.71408
0.0167769
0.567944
1.75766
0.875841
0.00442284
0.471348
0.0272491
1.58933
0.0628147
0.0326262
0.290608
0.753799
3.24804
0.405307
0.0964548
0.0247268
0.550572
1.24679
0.0558021
1.85647
0.0646894
0.661527
0.036629
0.862102
0.0656288
0.0127989
0.021445
0.438262
0.0129744
0.0240692
0.689328
0.0144615
0.231894
0.00857033
0.0350025
1.15678
0.516731
0.0546488
0.19394
0.911801
0.0703107
0.190307
0.0665437
0.0452161
0.136175
0.0157685
0.925447
0.375368
0.00604117
3.29887
0.0419196
0.138044
0.0612054
0.0540077
0.0132486
0.126205
0.327279
0.682683
0.011149
2.76991
0.0208767
0.190968
3.24146
0.0910727
0.0593394
0.814892
0.0420444
0.0214857
0.000300633
0.998558
1.37558
0.0223593
2.33488
0.0832536
0.0220213
0.603101
0.0345392
0.0209269
0.315306
0.0604388
0.0156483
0.0428861
0.0147084
0.0406315
0.0644887
1.11718
1.02143
0.0665781
0.0318947
0.0117582
0.341023
3.05458
0.017321
0.0102361
0.0945886
2.37144
0.0106202
0.451431
0.302827
0.0148742
0.174693
2.159
0.0163108
0.0852048
0.027164
0.0724727
0.0176339
0.019397
0.0503812
0.138904
1.19016
0.00564126
1.88454
0.0139282
3.30641
0.0373612
0.576735
0.110171
0.706122
0.75902
0.0327127
0.145785
0.0677179
0.0491413
0.0482902
0.723992
0.378668
0.0448307
0.0303864
0.124584
0.0537642
0.021844
0.00828745
3.50976
0.996753
0.342435
2.04128
0.0622787
0.0149592
0.379247
0.0619098
0.685293
0.00556625
0.0466727
0.0127911
0.0403396
0.0190047
0.0382538
0.0250472
0.0729061
3.39468
0.929927
0.0347641
0.106106
0.18025
1.2474
0.0194783
3.20107
0.480729
1.15706
0.0516637
0.369179
0.0151779
0.0650383
0.0527537
0.0443926
0.0325614
0.860957
2.88712
0.0585752
0.0950781
0.697972
0.0971103
1.07703
3.84715
0.0365815
0.00973952
0.0341367
0.0852356
0.410134
0.014079
0.870005
0.318592
0.0464336
0.0336877
0.0570984
0.192614
0.0644803
0.0126395
0.0402863
0.0181406
0.0567775
0.208246
0.0625243
2.34312
0.0386698
0.0276545
0.0799278
0.0279224
0.018881
1.08531
1.13571
0.0238687
1.121
0.0297725
0.680346
0.0509801
0.0683767
0.0160572
0.0149833
0.739224
0.0385919
0.0497232
0.338587
0.782313
0.0325073
0.0316782
0.0284767
0.0578654
0.756842
0.010823
0.0234925
2.45962
0.0245348
0.030202
0.0502918
1.8491
0.0249916
1.04903
0.727453
0.0102398
0.301197
0.0518906
0.00580663
3.176
0.120848
0.0307819
0.000582145
0.181492
0.0381213
0.0751266
0.0140995
0.818808
4.97477
0.0244934
0.0117842
0.31404
0.0474356
0.351201
0.553915
0.0370778
0.259032
3.06636
0.0309971
0.375851
0.0409804
0.0376741
0.063928
0.0171362
0.649687
0.25932
0.0364642
0.0309447
1.38473
0.0344638
0.0654808
0.0355235
0.250253
0.648957
0.0149898
0.0193866
0.031108
0.020611
0.0149145
0.00103455
0.022616
0.0655302
4.10307
0.193348
0.0231155
0.623815
0.0458478
0.387676
3.25534
0.739434
0.574143
0.0219257
5.68652e-05
0.190463
0.0668238
0.0323588
0.581585
0.0312923
0.338578
0.971728
0.231548
0.0518795
4.56162
0.0145312
1.0374
0.0219257
0.0194096
0.349393
0.122349
0.379066
0.0292204
0.0175949
0.00965145
0.0542744
0.902366
0.367266
0.0446951
0.515749
0.169199
1.03387
0.0116349
3.00826
0.0363983
0.0295575
0.119405
0.0381149
0.150228
0.657379
0.177039
0.0149983
0.887726
1.12422
0.0478367
0.689231
0.194768
0.00497386
0.134273
1.03572
0.0339649
0.0148145
0.0203053
1.814
0.0235796
0.00816633
1.00565
0.177841
0.0441932
3.1017
0.364213
0.0918987
0.0833372
0.61687
0.0339362
0.15517
0.0139461
0.0390899
0.0169091
4.1795
0.039681
0.447928
1.0772
0.0140548
0.312465
3.05518
0.0446564
3.24585
0.0137897
0.139328
0.059648
0.0127981
0.042184
0.0308455
0.0118881
0.0474194
0.032063
0.0246525
0.0197757
0.933344
0.175782
0.0228501
0.131986
0.018697
0.0192673
0.0155657
0.0351184
0.0361821
1.02795
0.00738937
0.886456
1.17962
0.94492
0.729769
0.0393186
0.0514353
3.59671
0.0177451
0.229667
0.0350339
0.0173844
0.0675987
3.67586
0.0392897
0.0269552
0.0183955
0.0750165
0.0240252
0.888096
0.160678
0.63255
0.999463
0.0177973
0.015964
0.166881
0.0350661
0.0394397
0.0114087
0.0461947
0.0149524
0.0318438
0.0521373
0.00784738
0.469676
1.24623
0.683185
0.0338464
0.0304597
0.360193
1.08866
0.653191
0.0146434
0.0224415
0.226889
0.0129638
0.0149103
0.0276566
0.341418
0.244412
0.0157617
0.0207562
0.0376923
0.0127849
1.08725
0.0189617
0.0382835
0.0369796
0.038628
0.815628
0.0341839
1.18943
0.0181356
0.0287073
0.0148522
0.0108641
0.896278
0.0827075
0.0142598
2.22314
0.209894
0.14217
0.00629586
0.0225067
0.672407
2.94222
3.09246
0.0155269
0.416461
0.0324302
0.0325113
4.25988
0.375668
0.0139707
0.00634615
0.425844
0.760217
0.0300014
0.0146553
0.724037
0.0165186
0.0321413
0.0558283
0.0362217
0.169628
0.0327198
0.026814
0.0323291
0.622851
0.0300305
0.0149969
0.0195556
0.0537042
0.0437813
0.0421947
0.14252
0.281951
0.202321
0.0512529
0.0478119
0.0329793
0.00990325
0.032976
0.0191931
0.167816