/*--------------------------------*- C++ -*----------------------------------*\
  =========                 |
  \\      /  F ield         | OpenFOAM: The Open Source CFD Toolbox
   \\    /   O peration     | Website:  https://openfoam.org
    \\  /    A nd           | Version:  10
     \\/     M anipulation  |
\*---------------------------------------------------------------------------*/
FoamFile
{
    format      ascii;
    class       volScalarField;
    location    "550";
    object      nut;
}
// * * * * * * * * * * * * * * * * * * * * * * * * * * * * * * * * * * * * * //

dimensions      [0 2 -1 0 0 0 0];

internalField   nonuniform List<scalar> 
10435
(
9.92731
11.8567
17.1624
19.1638
17.5113
10.3315
18.1626
18.9629
18.3574
11.4733
14.9452
23.5338
13.1093
2.38186
2.54982
18.7386
2.3153
8.35496
18.016
12.1214
18.8596
19.5826
18.3137
22.2982
14.3801
3.78261
3.34257
16.0902
2.88456
9.4473
19.2703
16.0075
18.8936
2.57103
19.7755
6.40236
20.15
3.42671
4.46118
19.328
7.33783
17.8084
2.347
15.8201
20.1355
20.9535
8.52185
2.62299
18.0087
19.8128
18.9499
17.1828
4.21526
2.90074
4.23267
2.81863
21.169
3.28046
2.23472
20.4586
3.97793
10.0075
3.12234
18.5347
19.113
16.1478
2.29789
2.8438
18.9498
23.2941
2.9504
3.59921
2.05001
16.9046
2.90203
2.19775
23.7781
18.5525
18.8055
2.82231
22.3806
7.86422
3.93774
2.83781
23.2085
5.45403
7.45038
15.2668
3.67713
9.38561
16.9368
18.5248
10.0427
4.48923
11.4171
4.94862
19.9868
2.82441
2.18537
20.5001
3.18123
13.6456
5.76848
13.4086
12.936
17.5641
12.2811
21.2437
23.7182
3.45363
18.1952
14.199
5.95471
4.47228
19.4899
17.9665
21.3753
7.02119
14.5015
22.2209
22.1269
2.00931
8.84379
2.68418
14.8959
3.78781
21.2708
2.0737
19.8991
3.78055
2.28044
14.4511
18.9516
2.45395
3.56658
2.85757
4.34038
20.5988
12.7236
16.1937
14.2376
19.6079
2.41188
21.6278
21.0105
2.47909
3.35396
15.6668
2.36631
22.918
2.77619
21.2201
9.72575
22.2494
14.2803
3.09905
14.9364
10.7967
12.3906
12.3937
21.7619
2.26261
17.4491
23.6625
3.51437
20.9306
18.8156
22.7675
23.9495
20.6824
15.1645
2.10535
3.02946
2.67718
23.4946
10.842
8.1282
2.4946
16.4113
2.87606
13.5333
11.6468
23.2624
3.70691
20.7564
2.35376
2.13996
18.6544
17.0812
19.8114
22.8861
3.6335
3.75358
5.6726
14.6751
18.837
2.32867
4.24842
2.54815
19.3285
3.63169
3.21845
14.8114
3.20778
15.8546
18.6097
16.0628
21.8309
2.97958
22.2012
2.65818
17.7652
22.209
23.896
3.19425
2.41644
4.51985
3.01263
3.81581
2.18314
2.8103
2.41334
2.60372
2.69103
3.44153
19.2598
4.02774
3.44745
18.9269
2.23457
2.59117
19.0317
3.88451
22.257
3.71709
2.32062
22.2883
3.6307
23.2321
17.4463
13.9064
3.45601
2.73295
2.85164
18.1914
18.5876
3.83197
19.0609
2.46518
9.08746
2.64557
4.55536
11.7448
23.0987
18.928
19.2288
2.29758
18.7976
2.88362
2.98671
18.6074
16.638
3.6516
23.9497
5.95185
2.4318
11.8421
18.4355
3.46314
19.2441
18.3316
19.1685
19.0891
14.544
3.81629
22.8314
3.61749
17.2992
18.6052
19.1097
12.1695
2.38772
18.0072
2.99613
5.90987
2.98938
16.5194
4.20994
2.76294
2.70416
3.05451
13.6129
2.83619
19.1628
4.56927
2.95041
2.36638
7.80014
17.0832
16.9213
2.71175
23.7446
17.6376
2.65445
16.6995
2.55511
2.37905
23.1163
16.3709
2.67938
14.4385
3.31368
7.29728
16.0685
18.8367
2.87777
3.41483
20.8812
2.68721
23.3498
12.1277
3.05331
7.68287
3.3478
18.9914
14.2396
3.88261
17.11
2.51362
3.48911
19.4097
2.53995
2.59573
17.7497
22.8344
3.10061
2.78902
2.58059
2.44633
2.90154
3.88331
3.37625
3.76751
3.05446
2.92884
3.04534
2.93656
3.77253
3.08467
18.7213
2.51565
14.4838
3.27794
16.3571
18.8308
17.9069
13.8363
17.6573
2.8825
2.69368
2.65718
3.87795
2.82002
3.22403
3.07159
3.84596
3.01469
23.8243
3.75539
18.4214
4.03623
3.84502
13.1229
17.4792
2.73961
3.41576
3.27019
3.55443
2.78181
3.7656
4.08292
4.02502
18.9735
2.77638
19.0922
18.5923
15.4181
14.4116
18.2991
16.9368
19.2818
2.38378
2.38244
2.85826
2.89179
17.4353
2.84636
12.5345
4.00565
2.97056
3.81575
2.6853
3.12273
18.2595
3.44255
19.0609
23.6646
2.49023
3.7974
3.84977
17.4282
3.98069
3.79135
3.25082
2.81223
2.84678
2.97101
16.8593
2.94889
3.68292
2.92664
2.35088
10.3396
2.31185
2.62314
16.9821
2.60302
93.3254
92.1041
89.2157
85.099
80.0488
74.2982
68.0797
61.6442
55.3185
95.5204
94.4878
92.0561
88.4942
84.0524
78.9679
73.4947
67.9456
62.7448
95.9213
95.1059
93.1297
90.1596
86.3841
82.0203
77.3336
72.6651
68.4729
94.4332
93.8315
92.2948
89.918
86.8265
83.2094
79.3281
75.5382
72.3264
91.0202
90.613
89.4742
87.6496
85.2122
82.3206
79.2247
76.2894
74.0625
85.7674
85.5289
84.7185
83.3631
81.4986
79.259
76.8752
74.7064
73.3239
78.9386
78.8328
78.2571
77.252
75.8376
74.1299
72.3374
70.7925
70.0173
71.0187
70.9603
70.5042
69.7117
68.6024
67.2813
65.9346
64.8592
64.4953
62.5864
62.4587
62.0023
61.291
60.3497
59.2725
58.2261
57.4801
57.4375
54.1418
53.8587
53.3154
52.594
51.7206
50.7747
49.9026
49.3502
49.5137
46.0285
45.5735
44.9276
44.1699
43.3206
42.4407
41.6543
41.1743
41.3519
38.4262
37.8759
37.1957
36.4402
35.6228
34.7913
34.0498
33.5761
33.6613
31.3677
30.9462
30.3597
29.6773
28.9252
28.1518
27.4496
26.9654
26.9285
25.1637
24.9928
24.5836
24.0192
23.3544
22.6494
21.9919
21.5042
21.3624
20.183
20.2013
19.9412
19.4798
18.893
18.2514
17.6381
17.1572
16.9549
16.5175
16.5743
16.3684
15.9563
15.4163
14.8198
14.242
13.7673
13.5031
13.9393
13.9141
13.6774
13.2628
12.7382
12.1675
11.6155
11.1495
10.8451
12.0453
11.9221
11.6249
11.1851
10.6597
10.1039
9.57219
9.11961
8.80741
10.5147
10.3332
9.99213
9.53366
9.00966
8.46885
7.95707
7.51909
7.20364
9.18334
8.98582
8.63205
8.17524
7.6654
7.14731
6.66034
6.24031
5.9222
7.99811
7.81145
7.47113
7.0356
6.55397
6.06838
5.61341
5.21857
4.9121
6.96281
6.79822
6.48498
6.08235
5.63839
5.19269
4.77536
4.41009
4.11846
6.10178
5.95628
5.6706
5.30319
4.90022
4.4979
4.12128
3.78826
3.51421
5.43977
5.2936
5.02464
4.6882
4.32463
3.9659
3.63078
3.33106
3.07714
4.99276
4.80306
4.53522
4.22417
3.89553
3.57844
3.28413
3.01678
2.7841
2.24534
2.27588
2.33353
2.42008
2.53689
2.68454
2.86313
3.07219
3.31115
3.579
3.87477
4.19729
4.54505
4.91656
5.30968
5.72218
6.15146
6.59444
7.04766
7.5074
7.96938
8.42923
8.88233
9.32399
9.75043
10.1641
10.5655
10.954
11.329
11.6955
12.0559
12.4124
12.7678
13.1285
13.5025
13.9004
14.3353
14.8242
15.3886
16.0555
16.8588
17.8416
19.0584
20.5794
22.4913
24.8958
27.9037
31.6238
36.1407
41.4893
47.6225
54.3866
61.5172
68.651
75.3768
81.287
86.043
89.4066
91.3118
2.20645
2.23685
2.29321
2.3774
2.49069
2.63382
2.80701
3.01011
3.24266
3.50405
3.79346
4.10989
4.45199
4.81777
5.20499
5.6112
6.0342
6.4713
6.91933
7.37471
7.83355
8.29175
8.74521
9.18999
9.62279
10.0418
10.4464
10.8373
11.2167
11.5872
11.9513
12.3114
12.6713
13.0367
13.415
13.8162
14.2533
14.7425
15.3048
15.9665
16.7616
17.7334
18.9384
20.4483
22.3517
24.7516
27.7587
31.4772
35.9822
41.2885
47.3254
53.9227
60.8142
67.6596
74.0834
79.7219
84.2699
87.5109
89.3753
2.14365
2.17263
2.22617
2.30601
2.41338
2.54904
2.71335
2.90629
3.12765
3.37699
3.65372
3.95704
4.28586
4.63877
5.01395
5.4093
5.82237
6.2504
6.69028
7.13855
7.59144
8.04494
8.49501
8.93782
9.37014
9.78994
10.1963
10.5896
10.9711
11.3432
11.7086
12.0703
12.4328
12.802
13.1855
13.5937
14.0395
14.5396
15.1151
15.793
16.6081
17.6047
18.8393
20.3822
22.3172
24.7384
27.742
31.4119
35.7998
40.9019
46.6396
52.8508
59.2935
65.6665
71.6424
76.9066
81.1937
84.3116
86.1892
2.04512
2.07245
2.12302
2.19842
2.29979
2.42785
2.58295
2.76517
2.97443
3.21044
3.47281
3.76093
4.07399
4.41087
4.77012
5.14989
5.54798
5.96179
6.38839
6.82442
7.26625
7.71003
8.15189
8.58817
9.01571
9.43226
9.83656
10.2285
10.6092
10.9806
11.3455
11.7079
12.0728
12.4466
12.8379
13.2576
13.7194
14.2406
14.843
15.5542
16.4087
17.4499
18.7312
20.3165
22.2788
24.6963
27.6438
31.1811
35.3378
40.0967
45.3812
51.0494
56.8979
62.6764
68.1117
72.9366
76.9207
79.8902
81.7718
1.91876
1.94428
1.99167
2.06243
2.15762
2.27793
2.42372
2.59509
2.79201
3.01429
3.26161
3.53354
3.82946
4.14849
4.48944
4.85078
5.23056
5.62648
6.03584
6.45551
6.88208
7.31193
7.74139
8.167
8.5857
8.99519
9.39404
9.7819
10.1595
10.5289
10.8931
11.2564
11.6246
12.0052
12.4075
12.8435
13.3275
13.8776
14.5157
15.2686
16.169
17.2563
18.5768
20.1836
22.1346
24.4887
27.2993
30.6053
34.4215
38.7267
43.4557
48.4941
53.6801
58.8141
63.6742
68.0381
71.7069
74.5224
76.4065
1.76573
1.78882
1.8324
1.89782
1.98612
2.09797
2.23373
2.39354
2.57736
2.78506
3.01642
3.2711
3.54863
3.84833
4.16926
4.51015
4.86933
5.24479
5.63412
6.03451
6.44282
6.8557
7.26974
7.68169
8.08861
8.48826
8.87912
9.26075
9.63384
10.0004
10.3638
10.7289
11.1024
11.4926
11.9098
12.3665
12.8777
13.4609
14.1371
14.9301
15.8677
16.9815
18.3072
19.8838
21.7524
23.9537
26.5241
29.49
32.8612
36.6235
40.7306
45.0996
49.6101
54.1074
58.4134
62.3426
65.7209
68.4022
70.3034
1.58613
1.60577
1.64435
1.70315
1.7832
1.88516
2.00945
2.15624
2.32555
2.5173
2.73134
2.96745
3.22529
3.50439
3.80404
4.12326
4.46068
4.81449
5.18255
5.56235
5.95104
6.34556
6.74283
7.13984
7.53381
7.92263
8.3048
8.67989
9.04861
9.4132
9.77754
10.1473
10.5298
10.9344
11.3718
11.8548
12.3976
13.0163
13.728
14.5508
15.5041
16.6087
17.887
19.363
21.0626
23.0123
25.2385
27.7635
30.602
33.754
37.1983
40.8852
44.7331
48.6271
52.4257
55.9718
59.1092
61.6984
63.6493
1.37387
1.38805
1.41941
1.46932
1.5388
1.62864
1.7393
1.87101
2.02389
2.19797
2.39318
2.60935
2.8463
3.1038
3.3815
3.67881
3.99475
4.32767
4.67538
5.03541
5.40525
5.78226
6.16382
6.54729
6.93008
7.31029
7.68643
8.05804
8.42589
8.79271
9.1633
9.54425
9.944
10.372
10.8387
11.3563
11.9368
12.5915
13.3305
14.1626
15.0958
16.1381
17.2983
18.588
20.0221
21.6186
23.4003
25.392
27.6195
30.1044
32.8555
35.8597
39.0734
42.4182
45.7823
49.0272
52.0049
54.5746
56.6334
1.11623
1.1207
1.14066
1.17773
1.23316
1.30774
1.40189
1.51572
1.6502
1.806
1.98208
2.17816
2.39395
2.62966
2.88602
3.16304
3.46125
3.77901
4.11195
4.4571
4.81277
5.17726
5.54875
5.92534
6.30496
6.68602
7.06645
7.44566
7.82465
8.20713
8.6
9.01112
9.44889
9.92157
10.4372
11.0081
11.6417
12.3327
13.0808
13.885
14.7421
15.6464
16.5942
17.5934
18.6571
19.7975
21.0383
22.4065
23.938
25.6802
27.683
29.9826
32.581
35.4408
38.4773
41.5626
44.5325
47.2231
49.5021
3.18138
3.0693
2.99137
2.93069
2.88045
2.838
2.80218
2.77233
2.74843
2.73193
2.72484
2.72329
2.71908
2.70414
2.67273
2.62498
2.56405
2.49388
2.41934
2.34636
2.28145
2.23038
2.19669
2.18327
2.19568
2.99969
2.97701
2.93525
2.89005
2.84671
2.80732
2.77283
2.74384
2.7213
2.70637
2.69846
2.69321
2.6836
2.66296
2.62762
2.57761
2.51541
2.44493
2.37089
2.29913
2.23575
2.18674
2.15707
2.15012
2.17
2.90544
2.88944
2.85875
2.82148
2.78279
2.74583
2.71264
2.68471
2.66334
2.64904
2.64019
2.63247
2.61983
2.59656
2.55917
2.50718
2.44264
2.36948
2.29349
2.22112
2.15867
2.11211
2.08603
2.0837
2.10756
2.82305
2.80109
2.77072
2.73538
2.69845
2.66275
2.63047
2.60341
2.5828
2.56865
2.55895
2.54952
2.53489
2.50981
2.47073
2.41669
2.34912
2.27279
2.19423
2.12039
2.05819
2.01323
1.98924
1.98845
2.01173
2.73875
2.70919
2.6752
2.63847
2.60118
2.5655
2.53342
2.50663
2.48612
2.47159
2.46085
2.44988
2.43353
2.40675
2.36583
2.30947
2.23857
2.15899
2.07767
2.00227
1.93978
1.89514
1.87096
1.8685
1.88857
2.6502
2.61292
2.57403
2.53448
2.49563
2.45907
2.42644
2.39918
2.37807
2.36258
2.35048
2.33785
2.31972
2.29106
2.24803
2.18907
2.11493
2.0322
1.94817
1.87104
1.80744
1.76144
1.73458
1.72746
1.7408
2.55738
2.51276
2.46909
2.42649
2.38564
2.34762
2.31379
2.28541
2.2631
2.24615
2.23235
2.21782
2.19762
2.16672
2.12113
2.05917
1.98174
1.89583
1.80909
1.72983
1.66398
1.61453
1.58207
1.56653
1.56896
2.45874
2.40962
2.36274
2.3177
2.27485
2.23509
2.19961
2.1697
2.14591
2.12732
2.1117
2.09511
2.07244
2.03865
1.98978
1.92415
1.84299
1.75346
1.66364
1.58143
1.51186
1.45631
1.41519
1.38566
1.36983
2.35687
2.30716
2.25894
2.21213
2.16741
2.12584
2.08864
2.05742
2.03277
2.01318
1.99642
1.97809
1.95235
1.91472
1.86123
1.79057
1.70442
1.61008
1.51592
1.4293
1.35379
1.29011
1.23573
1.18411
1.13676
11.7909
12.5075
0.141897
1.76439
1.16182
1.27838
2.53754
3.46573
0.157186
22.4466
0.199905
3.10901
16.5272
0.991936
6.67826
1.4091
0.300705
2.16775
35.3032
0.200536
12.8211
4.88184
0.278252
3.22018
4.13156
2.46697
4.10497
0.826609
12.4831
0.316585
65.0792
1.9797
0.265028
15.3383
0.311153
1.11564
12.4626
6.46776
15.3208
6.94454
0.220641
0.0674819
3.39926
1.58179
2.13304
10.8387
0.205384
0.186859
0.0581231
0.190359
0.202539
0.176571
15.7448
2.46431
2.59698
0.150948
1.25514
15.1182
1.90009
0.113689
0.864643
0.137483
1.17024
3.47129
3.39177
1.83363
20.3274
2.61472
16.3592
0.156237
0.149168
6.46104
1.75751
0.235118
3.77045
13.4516
0.637057
0.210535
2.79063
2.93211
15.1619
1.08852
3.07951
0.187009
1.02972
0.946934
2.07514
0.210022
0.26462
6.23661
2.72533
16.3029
6.68211
3.10919
1.42242
0.202925
2.36751
0.195011
0.328305
0.109285
1.05312
0.223805
1.06939
7.76109
2.12636
1.84601
0.277669
15.0047
0.802241
0.316633
4.49257
2.39172
0.308699
7.81708
15.7552
0.0592526
0.195276
7.87983
16.6541
2.25561
0.103113
2.58876
3.28378
4.0361
0.270551
3.24655
0.182507
0.417515
4.294
0.188145
3.0968
0.261383
0.151494
17.3113
1.36917
2.05582
2.09491
0.969799
0.791322
0.167563
6.93012
13.6655
0.120518
0.0989304
0.691364
1.76128
1.42805
3.11058
1.3186
0.315925
2.29886
2.42564
1.43205
8.75768
4.27167
0.185307
2.67145
6.79836
1.60321
4.83193
3.15379
0.156198
3.05574
0.197674
3.59088
0.192768
1.18908
4.0775
2.6097
2.38986
1.03036
3.93467
2.41298
0.189349
32.3198
1.59197
10.9663
0.119445
0.229246
6.82011
13.262
1.74357
16.0713
11.0991
2.17862
0.838046
0.195052
0.792373
0.2052
0.988367
0.159665
0.115496
6.23351
13.2543
6.74759
0.228603
3.88116
4.65335
0.053073
15.6974
16.2048
4.66047
1.01879
0.934503
1.62187
8.34481
18.3158
0.986489
0.103373
7.74679
2.19472
2.73943
14.2037
1.65307
3.47112
0.230875
1.32627
2.14369
7.79877
4.73956
0.570093
0.104003
4.2441
0.12251
4.96009
0.198666
4.98264
0.293238
0.701937
1.53645
0.182281
1.09738
1.58726
2.51753
14.5774
15.0394
3.18577
0.642833
11.1636
7.08047
66.5447
0.894459
3.28616
1.59709
1.90779
2.36216
2.50148
2.30266
1.43834
3.07274
0.575015
1.70982
25.866
0.084178
1.33052
3.71982
0.309336
0.829329
1.99954
38.7232
2.05586
4.29211
1.33684
4.29536
0.303804
3.86325
5.85477
1.02859
2.36181
4.05834
11.0423
6.05006
0.436022
1.96757
28.7924
1.02566
14.283
0.193924
1.51
0.159256
2.09516
2.57404
2.83634
10.5782
0.618847
0.766653
1.82292
5.01241
0.213994
0.166733
3.62843
3.1206
0.102055
0.211758
17.9166
0.233088
0.287707
22.3888
5.13934
0.120902
0.144385
3.14867
3.49876
0.981343
0.294678
4.02941
12.4194
43.0433
0.169988
1.00992
6.81544
11.8619
0.233143
4.22935
0.377973
14.2756
0.209248
21.5003
4.04968
21.6113
1.53484
3.21609
3.29458
60.5509
1.88846
3.73702
0.189073
14.882
25.2468
14.7516
3.72938
6.6143
0.533135
18.7701
0.20527
0.984003
2.7073
2.98985
0.263006
2.24712
2.64267
3.19432
0.149385
14.3209
0.357337
1.32174
1.07453
0.872852
2.18752
0.198798
5.54628
6.3502
0.117354
2.10073
0.213326
4.81375
23.2661
1.49191
3.10193
0.200643
0.114776
0.280114
3.15489
0.19367
0.0818858
2.36646
2.54174
0.211485
1.62041
0.199441
11.7026
9.08476
7.55774
0.217949
16.4435
3.53601
3.29737
4.66498
4.0006
17.9788
0.291212
3.23891
0.269727
1.72602
1.57943
20.6384
3.73237
0.208403
0.211057
0.159235
1.48494
7.41796
3.39275
0.202921
12.5413
29.1483
3.67355
0.259903
6.24544
7.34533
3.4369
3.62198
1.06092
0.294484
3.21189
0.105081
3.7526
3.02539
6.73768
62.0777
0.671071
1.40495
0.339003
0.820506
3.05081
3.85676
0.0656242
0.199283
4.49297
15.7237
3.68462
4.35058
5.0788
1.0183
2.9128
0.175267
0.17359
3.85086
55.3516
2.0431
0.90894
3.51582
6.49346
2.69601
3.02262
2.39855
4.60874
0.110715
0.910846
2.87078
4.86119
7.39077
0.216979
2.36148
16.1541
0.12978
0.719263
0.124682
2.19761
2.92416
0.207089
2.73124
2.9126
0.405066
13.6596
0.155535
0.197909
0.872808
2.61723
0.71586
3.2994
2.24789
1.2777
14.3164
0.165233
2.96394
1.86103
0.129361
4.55493
0.21592
2.54558
2.73784
0.288138
2.96594
3.93298
15.5941
8.74498
2.98887
3.54578
5.14775
3.26558
14.0348
0.127925
3.16326
0.185037
1.13682
0.989452
6.3335
1.71426
6.6267
7.24908
2.33338
3.54602
0.189539
1.72729
1.24669
7.26184
0.763311
5.60517
0.193301
3.30249
3.26292
1.02519
1.32701
11.5762
15.2402
0.889738
1.04117
3.43356
2.34559
3.78336
14.9371
31.026
9.49618
0.769699
0.212323
0.290401
0.0967097
3.59941
1.46545
12.3297
0.167831
0.194255
0.454259
15.4934
7.93771
0.16916
0.243059
8.62448
4.37368
1.5127
7.48905
0.721978
0.126069
2.10426
3.79411
3.66856
0.0764427
0.079636
2.34485
21.2508
0.318535
4.55073
0.266467
0.157214
0.114771
2.73897
0.520095
0.785477
0.203935
12.7542
12.5529
4.3705
0.097827
0.0563142
0.210023
4.30474
10.7508
16.8021
0.116785
52.9357
16.3805
3.70973
16.0119
0.320081
29.4897
1.61146
2.1001
2.13361
1.8761
0.240007
7.73481
8.66472
1.5709
1.1614
0.309744
0.202147
0.124612
0.584583
1.80999
0.149464
16.3791
4.41043
10.9715
3.34347
0.254885
4.21856
1.25249
21.5383
4.52087
1.60397
1.18858
3.51428
8.66966
10.759
1.85442
15.4467
0.0844185
1.14498
1.75941
0.0987498
0.757658
0.124374
3.67246
0.475426
1.25588
0.793806
35.3352
5.0963
2.64501
3.43648
14.2751
2.55879
2.49665
1.61666
14.6619
2.82844
1.13897
0.112728
4.14589
3.35275
3.19008
16.4179
1.91772
3.18915
0.107754
0.203812
0.798701
0.239256
3.00564
3.9288
3.01078
0.425823
1.82757
2.10585
13.1819
4.55273
4.11806
2.69689
7.5227
1.66949
0.547669
1.74908
4.30305
1.23397
1.70285
2.32971
3.25954
0.102086
8.49927
2.39046
0.846285
21.8854
0.0988157
8.05401
39.7152
0.202588
43.2226
8.2376
2.24498
0.127726
3.77965
0.192384
0.0693632
2.98387
3.40968
0.281598
0.11473
1.64065
16.077
3.15852
21.1834
1.07718
0.131827
0.109466
2.99395
15.7915
1.28541
12.1756
17.4057
0.410103
14.9776
3.30043
2.94928
5.67229
0.468138
4.44134
0.0992995
0.268728
2.25794
4.34515
4.1302
0.217362
3.22858
11.9322
2.90633
2.35794
21.7971
0.759365
3.98483
1.87107
2.64347
1.45556
6.61003
7.56328
0.139005
7.5311
2.45652
0.184336
5.1616
0.942976
0.305588
29.5618
2.73766
3.16752
0.127463
2.14394
1.98618
1.42256
1.4581
16.6195
20.9048
62.6799
1.82575
2.60611
44.8032
3.21148
2.59317
14.7461
0.277799
17.5887
0.0871671
1.73704
0.105289
7.89858
0.239209
0.212181
0.721798
2.15612
1.20938
0.0707983
2.84009
2.86584
16.8827
1.08507
14.1677
0.942379
2.7514
2.91718
3.31003
1.11381
0.202513
0.11215
2.79139
1.99118
9.63124
15.6922
0.136061
0.0641054
3.09163
1.96602
0.142824
4.20708
7.79517
0.287943
8.79058
3.43445
8.93256
1.33057
0.173954
1.77883
1.52942
1.00426
4.4766
3.48621
2.09903
1.14768
2.45266
3.2988
1.80613
2.07237
5.61437
0.1446
5.29554
4.4707
4.98017
3.69363
0.173724
1.19227
18.8505
10.9523
8.35298
3.16161
0.169595
7.42186
0.200191
0.114781
3.12269
0.779212
4.53167
16.7871
6.91819
0.117353
15.6903
1.03213
14.0944
0.266405
0.245286
3.49809
2.33689
0.23068
0.142096
1.6867
0.999842
0.188258
3.22444
0.114945
0.181127
7.09056
1.55932
0.188957
1.11342
4.46957
3.68698
3.93408
0.355411
5.30545
12.0686
2.73947
3.5238
1.07645
3.37865
2.60046
1.63623
1.51596
18.7266
2.84739
0.190727
14.1577
12.391
2.00097
8.31149
8.34115
3.88584
16.6803
6.20806
15.197
5.63685
1.93047
11.7669
0.20598
1.55661
7.46075
2.74998
7.9692
0.16847
0.121733
1.58183
15.772
6.05611
0.113931
3.25334
0.754227
0.181676
7.20531
0.193477
1.85736
0.131903
8.80501
1.15932
0.399676
0.482905
3.4495
0.138494
0.134831
0.203271
13.1974
0.231031
9.9146
13.0268
2.83926
1.41866
0.743977
0.495795
0.781629
5.07712
6.52829
0.113422
4.67655
4.15642
0.239667
1.3465
0.991614
7.59421
0.117162
21.1747
13.332
1.93564
0.182845
0.295773
18.253
13.4328
0.213987
1.80011
0.829767
1.75926
0.178395
19.1803
3.56423
2.20163
0.224727
1.98582
3.80038
5.80892
0.0777785
0.906931
11.8967
0.968533
19.4103
0.122422
0.067579
5.97334
0.82716
1.47032
3.56651
2.18127
15.1432
3.40819
0.837615
0.872435
0.926616
5.00374
0.219431
1.21141
0.121541
12.04
3.75348
19.537
1.31591
3.54669
0.134845
0.135462
0.756054
10.2032
2.36597
1.08798
3.70002
60.3277
22.8228
18.1492
0.24013
2.20117
2.9866
3.36438
1.22104
3.72339
1.02593
0.252865
13.2847
0.973323
4.08026
3.97689
1.81828
3.03477
45.8897
6.54748
1.45693
0.94625
13.4975
0.97094
1.73013
0.322639
0.188674
0.137565
3.30225
1.88095
2.91888
3.97613
2.77554
1.17753
0.697534
0.307435
1.66661
1.58864
1.81948
3.93803
0.0944689
13.7011
3.336
0.495199
2.01177
2.09901
0.201366
4.2385
2.87136
2.30544
2.4108
1.58799
0.106417
12.0741
2.56322
0.31345
2.55874
0.201062
1.18812
0.088833
1.41282
3.45593
12.1601
3.82672
5.8032
1.7781
10.7819
0.388634
3.71832
16.8404
4.07655
0.411866
2.52258
0.190364
2.59258
2.16142
9.44254
1.54738
0.203132
0.77721
12.3646
1.48016
4.47501
3.57417
0.78623
0.278384
4.63036
1.50749
3.8293
3.03038
1.47098
0.0891905
3.94286
9.96456
10.693
3.31927
3.96214
3.40322
0.161823
2.60236
6.2766
2.36894
3.78523
0.254224
1.39462
0.835422
1.34191
0.111702
0.28127
0.201351
0.878703
0.858006
1.70219
0.128326
5.84862
0.112214
4.65375
1.63944
1.00112
2.6234
6.33141
1.07978
14.3521
64.4223
3.76309
0.357716
22.5433
0.239267
9.0295
1.73375
0.99564
20.2741
14.9209
2.59197
0.176315
11.1736
1.08422
2.90772
0.069724
0.188594
3.66136
3.77323
6.94566
3.42826
3.30012
1.6369
0.149568
2.45575
10.7905
16.2907
1.05461
1.61047
4.44051
2.11208
2.30613
0.165439
0.529687
11.6592
0.128354
2.6482
10.4964
1.44104
66.8136
0.226031
0.225345
3.03188
11.9624
1.09394
7.39405
1.42272
10.9803
0.703471
3.09522
10.478
3.30207
1.34451
0.77294
3.18313
4.73227
3.32906
0.0817313
0.145376
1.59222
3.07207
11.6064
1.88944
16.0825
1.93387
6.0584
0.801773
12.3722
1.17981
14.1821
1.32958
0.222954
1.56521
0.23987
4.32902
19.2611
1.26085
2.2938
0.196639
14.1428
3.18682
3.22005
1.35741
1.50179
2.68038
1.32579
2.80244
0.127577
3.35227
1.35757
3.86162
0.663164
1.83932
2.20768
0.201156
0.619769
0.218819
0.197875
0.943399
0.978606
2.12802
2.49641
2.66132
3.88733
0.11582
11.2786
3.84446
10.263
8.35446
0.223481
1.6155
7.26408
3.18947
3.0288
1.17158
1.1467
13.1459
0.884939
0.87501
0.117798
5.12611
2.10399
0.237754
1.23409
2.051
2.39618
0.489662
1.69345
3.35011
16.9122
3.38186
0.249251
0.0805792
1.00563
2.7195
5.75673
3.41533
1.09688
11.9065
9.02301
2.45534
15.8607
8.87688
4.17506
0.20268
0.395864
0.111851
3.29292
0.967201
0.458659
3.26553
1.61581
5.87814
2.76586
0.25568
12.7219
2.08068
2.85454
7.55912
1.66139
2.61465
1.82633
3.43894
0.12898
0.402007
28.391
9.41904
55.2529
2.47648
0.927849
5.93561
9.83586
6.25412
0.229101
1.12503
0.107352
2.07428
8.53369
0.177949
0.148928
1.02224
17.5462
0.18187
0.0945904
0.447902
0.0683291
4.11288
0.168736
4.95413
17.5332
15.9457
7.49873
0.184979
14.9725
1.31846
3.03609
2.11852
0.16805
4.58565
0.184647
5.53919
0.183221
9.57454
0.114292
1.60724
2.11161
1.10239
0.282907
3.31091
1.89296
0.144978
2.3772
0.0500704
1.29096
3.56326
23.5496
1.80957
7.41106
15.6969
6.27266
5.3508
12.7109
4.54448
14.51
1.65932
2.97169
0.220118
15.7975
1.96472
0.238438
18.0236
13.3157
4.6398
10.6249
1.15247
13.7774
3.21518
6.90656
1.04622
0.163781
3.15467
13.2527
0.20893
2.09283
5.72528
19.8455
4.24475
3.15635
0.0212397
3.44131
0.17859
0.823672
0.239484
2.01397
1.01374
13.444
4.27852
2.89189
15.838
10.717
2.74129
4.6702
2.75837
4.248
11.2631
0.246584
0.138564
4.23794
8.3914
1.86155
15.7354
0.18416
1.15093
4.29455
1.5515
0.23479
4.08359
12.096
16.0736
3.41081
13.9272
0.201296
1.45547
4.19503
6.48633
4.49188
1.22034
2.76105
1.67557
1.21587
0.15872
0.246335
0.207534
4.13754
0.196387
3.66983
9.34283
2.6983
0.152425
0.110117
1.01085
3.53537
3.94849
5.40215
2.44198
0.0940972
0.100488
9.69328
3.37623
2.23734
6.28017
2.97078
1.15234
0.240511
0.0984889
0.57581
0.211916
7.02941
3.13092
15.8242
3.17405
0.10333
0.467195
1.16307
2.24837
18.4476
0.938295
25.9609
0.837626
2.33707
0.280984
0.124244
12.5055
1.9196
4.28009
0.153598
2.07181
0.275321
0.71959
0.109179
6.46404
0.498935
2.95264
8.79279
6.36423
1.15872
44.5307
8.08045
0.265734
10.7059
1.1792
0.147377
1.78539
0.15224
0.188137
24.7424
3.28317
8.47513
1.35976
15.3871
3.51341
0.12107
1.9573
5.27816
0.733552
4.43212
1.6768
4.54898
1.41658
5.43106
1.19095
5.02395
13.5972
10.878
0.226205
1.44948
3.5531
2.94696
0.653413
2.99581
0.146393
0.157822
1.9788
0.14888
17.2764
2.55832
6.41804
5.86455
1.67116
2.73099
0.09567
8.66
4.12133
0.274671
9.05251
58.0732
9.9135
8.22746
6.24602
2.68606
1.04527
3.08886
0.239205
0.81662
14.7695
6.24116
0.214568
0.755191
0.139288
0.13074
4.47091
0.141913
5.74204
0.500725
0.248902
3.26774
23.6623
0.0695906
15.3391
1.03517
5.61571
4.11107
6.04556
0.30529
1.02213
2.40692
0.714041
12.901
6.16384
17.1535
4.02131
1.96811
0.187332
48.3637
15.4881
5.03875
1.91315
7.40718
1.29599
0.122154
0.451685
3.80238
13.1201
0.161421
4.34926
4.19315
3.16702
1.66337
14.3533
3.3217
1.18302
12.0449
3.16148
3.18471
0.0835894
0.611364
9.23299
0.296502
15.3274
0.999522
17.6165
1.58447
3.03496
0.187539
0.174617
0.0888115
3.98873
0.0840242
14.5596
8.1808
3.31599
0.077093
1.6478
0.14044
0.133225
16.7466
6.27611
0.204019
2.7852
0.125922
1.10662
3.47837
0.158372
1.46834
3.6587
3.63515
3.70109
3.38568
7.20001
7.03336
6.06688
4.70637
4.36362
1.8682
0.143211
2.62512
0.242997
4.14663
8.31184
1.63013
8.43852
13.9797
0.111115
7.3409
2.26809
0.450022
6.19285
4.82404
0.174155
3.33624
0.533143
7.34952
0.108918
51.8957
0.910916
1.13521
0.201788
3.19881
3.36068
5.02704
11.1913
0.54675
0.228915
14.5007
2.31319
1.13339
2.99459
0.825957
6.17362
1.17823
4.54009
1.94467
0.304439
1.33854
11.576
0.145381
4.24574
1.53817
0.240573
5.23398
0.192433
2.75084
5.1504
3.93844
3.61449
1.58573
13.3301
1.71904
8.67182
5.21828
0.956941
2.77601
0.147493
9.43416
0.862153
3.99043
1.18021
0.89879
1.81273
3.51813
1.69518
5.77985
3.41797
20.2668
0.163939
4.61415
0.500589
4.6557
5.93334
0.219707
2.53273
2.01555
4.19341
3.17441
3.55329
0.193288
5.41537
7.21346
1.14078
1.4112
0.498275
3.95527
1.51229
16.0178
2.23713
1.90796
2.91392
1.55431
33.3788
1.248
2.61162
0.905909
3.02949
58.548
6.68142
3.29057
2.5834
0.164919
18.2698
0.699027
14.6604
3.32803
0.104277
0.0835872
2.54592
2.34249
1.52147
2.9866
3.60246
0.625742
0.859182
1.82176
1.74472
3.14591
3.77051
2.3486
0.148383
3.09433
4.03345
0.941048
17.7206
0.107835
6.14937
8.40244
3.94754
0.879624
2.74363
1.05534
0.110555
1.8349
1.4321
0.206999
6.5293
1.70149
2.45515
3.19534
7.20335
0.247376
0.22581
2.35772
0.349295
6.37552
22.8355
0.30292
0.0698289
4.20506
0.60385
2.48839
2.6012
17.5668
3.41252
0.0931563
1.62384
4.60878
3.51149
6.48848
1.26173
7.66487
3.45162
4.74475
2.96294
29.265
2.95309
1.18151
12.6463
1.74803
1.5524
14.3452
3.32037
1.53379
5.64814
4.86886
53.0297
4.5676
4.13431
0.906227
10.2769
6.43827
1.53767
4.63349
3.19174
2.04933
3.34141
4.41526
0.224868
1.06888
3.35284
0.179746
10.6874
0.0123511
4.28178
5.59218
0.178177
4.92532
1.82851
3.54172
19.6619
6.75035
0.93398
2.95992
0.203851
0.189605
3.64417
0.108652
7.1497
4.01193
0.0685307
0.219092
2.93153
18.3704
2.93257
0.140336
1.41116
10.1428
0.195875
0.201898
3.00406
0.206554
3.20738
3.75268
2.01641
0.129366
3.38176
2.21658
1.43852
0.186374
0.146143
7.33298
0.230878
2.83898
3.64694
1.03577
1.67338
3.45747
5.3704
2.94075
12.7951
11.1539
4.00957
5.45598
0.321242
2.41094
10.1556
0.191503
1.77062
3.22562
4.25611
0.0983204
5.65226
3.12571
0.169849
5.09479
0.119231
3.24059
2.44034
1.87705
0.295952
0.982759
5.63538
3.48461
3.67573
5.28111
5.99194
0.174526
2.75811
15.0053
0.511587
0.714708
0.110536
6.45866
1.56992
7.27956
4.0577
1.72376
3.39354
16.1324
11.6787
2.62746
3.15684
2.5019
8.3371
1.16515
4.02673
1.40418
0.882138
10.4248
11.0751
16.8075
0.770334
13.9814
5.80934
0.0628782
7.46927
16.6078
4.47549
1.63538
1.0666
2.68255
1.73612
1.0261
4.69219
7.99296
0.200704
0.208624
0.0877126
0.979979
0.0561716
3.55057
5.07443
2.67739
2.33903
0.212738
6.96509
0.189052
2.29261
0.183745
5.4079
2.53008
2.249
20.3762
0.285874
3.96354
0.155359
3.13314
3.13735
2.52667
0.199072
6.81179
0.805872
3.03472
4.9837
4.85702
3.01474
1.49259
1.50917
1.10353
3.72232
0.195388
6.82484
4.52449
11.449
3.15313
8.59519
0.115387
0.00735108
1.12355
2.74816
3.15517
0.615175
1.45444
0.113935
1.28931
0.95672
4.65575
2.98946
1.41782
3.6604
3.75401
5.51664
0.11516
0.62755
4.60839
7.6631
0.712982
4.14663
3.92257
0.54157
3.13212
1.38725
2.06926
15.9995
3.55938
71.4994
2.62515
7.97448
0.174945
22.2996
0.494073
1.56934
15.9638
0.268131
0.592062
1.40667
2.96865
3.67365
0.177399
0.244967
5.05661
6.08974
9.77347
6.20042
0.175045
0.0873082
0.201779
0.0887242
1.18628
0.483453
3.18469
0.679681
8.49815
4.52681
2.97765
1.99294
2.52266
0.201379
3.13981
5.44958
0.152652
0.105988
0.710732
6.36753
0.740643
0.23384
0.131113
0.803139
3.50332
1.58466
9.76144
2.16557
5.01066
3.77702
0.0941061
5.27575
2.06172
2.64033
1.61801
3.18352
13.632
3.8465
0.254373
0.724899
7.17752
2.86551
7.94705
1.98284
0.137499
1.90158
0.145763
3.19516
2.3375
5.28557
0.0860237
0.816865
1.82967
3.14417
0.235743
1.34318
3.99894
16.7713
0.027857
2.79726
0.836718
1.18902
2.69638
13.7417
0.169284
2.47682
2.15234
0.198531
2.6698
8.31026
7.45362
3.40614
5.01674
11.231
0.191022
12.2621
13.097
1.78404
0.188793
6.77827
7.38692
2.86457
1.70283
15.1825
5.1465
0.962499
2.45978
5.78657
0.218063
2.99578
3.25521
2.06245
0.246021
3.12243
0.130816
11.8914
25.6781
2.3486
2.26103
4.18231
0.191925
16.3366
2.04543
0.933222
0.887237
0.200385
0.198238
10.902
3.37941
1.23461
1.99918
2.89202
5.23663
0.928397
6.04754
1.14437
5.87985
0.19627
15.9225
0.248847
52.001
1.77822
0.236043
0.916903
7.24092
2.66588
3.30396
1.34389
2.81875
3.33133
3.0993
3.75215
3.15245
1.82423
2.33503
0.21039
7.54076
3.4276
2.39486
0.106918
0.225468
0.162946
0.181555
0.10774
2.15772
0.129653
4.25596
1.68759
2.70046
0.203149
1.07356
2.98409
0.533434
9.70161
11.9325
4.37137
7.47817
2.02713
3.39124
1.03104
0.124189
1.48692
0.258751
0.190599
0.784967
1.91742
9.01401
8.60961
1.12029
4.01283
4.56042
5.06718
4.05437
2.14542
3.40749
0.474093
0.139352
4.37272
10.1611
0.337654
0.187332
0.152329
1.73724
18.3583
0.13629
4.78399
1.04892
1.70228
4.86721
3.48543
2.83203
0.211279
0.196692
1.30782
48.3823
2.61385
0.229549
2.04035
0.259663
0.207765
0.159521
0.203952
0.117774
5.2181
0.270441
10.694
16.0367
0.36207
0.16279
0.120701
0.775039
29.2616
0.240785
41.5002
0.223379
2.82598
0.25089
1.23465
1.86749
0.092123
9.19452
2.66895
4.09034
7.702
19.1543
4.17151
1.61468
2.13297
1.04811
2.51183
3.52293
0.493754
1.55022
5.74886
1.98674
58.6035
2.47716
1.019
3.19855
7.04977
0.279982
9.73291
3.51275
4.40177
4.57534
7.66363
0.96036
0.225938
0.10571
0.264805
7.51846
47.6181
2.88746
1.64572
3.05642
2.34963