/*--------------------------------*- C++ -*----------------------------------*\
  =========                 |
  \\      /  F ield         | OpenFOAM: The Open Source CFD Toolbox
   \\    /   O peration     | Website:  https://openfoam.org
    \\  /    A nd           | Version:  10
     \\/     M anipulation  |
\*---------------------------------------------------------------------------*/
FoamFile
{
    format      ascii;
    class       volScalarField;
    location    "550";
    object      p;
}
// * * * * * * * * * * * * * * * * * * * * * * * * * * * * * * * * * * * * * //

dimensions      [0 2 -2 0 0 0 0];

internalField   nonuniform List<scalar> 
10435
(
0.118629
0.683646
-18.4623
-2.17993
-5.6023
-8.31987
-20.6832
-25.7266
-29.0195
-11.809
-0.409577
-8.69937
-19.9088
-1.26789
-1.23795
-22.1048
-1.34792
-10.9033
-31.5012
0.335107
-22.9985
-1.744
-20.0494
-15.6471
-14.7442
-1.97074
-3.01427
-19.1351
-2.31977
-16.2772
-12.501
-0.769801
-27.1817
-1.45802
-23.4104
0.325792
-22.5985
-4.56882
-1.99119
-25.1906
-7.34569
-20.8567
-0.848447
-0.504755
-19.9741
-22.8632
-7.80022
-1.72607
-34.0201
-4.10985
-24.4224
-14.7935
-3.10756
-2.53444
-0.659893
-2.23144
-23.3162
-2.48399
-1.54082
-18.9859
-2.41703
0.725894
-2.0008
-5.83771
-20.3071
-18.3941
-1.60262
-2.01563
-23.8977
-11.879
-1.54329
-2.86756
-0.275588
-20.5543
-1.27264
-0.471862
-3.89696
-19.9964
-27.7147
-1.18057
-6.09856
-0.455699
-2.58959
-1.86581
-7.55471
-0.194972
0.0154455
-0.245584
-0.574626
0.257556
-0.977591
-1.78514
-0.449504
-0.654134
0.432399
0.0199904
-3.40998
-0.893826
-1.07286
-4.51659
-1.65392
-5.24971
-0.308557
0.233031
-5.48836
-1.24914
-0.633364
-4.77652
-7.65747
-1.0157
-2.78617
-3.88635
-0.631082
-0.984295
0.305429
-0.8883
-5.64403
0.0979297
-0.165891
-6.03123
-4.5939
-0.330281
0.354082
-0.293985
-1.6488
-2.13
-4.87881
-0.36251
-5.45877
-2.74105
-0.20944
-0.746967
-24.0658
-1.20016
-2.21303
-0.179736
0.0895692
-2.84601
0.317978
-0.315892
0.0967782
-22.3844
-1.2949
-8.36605
-2.26408
-0.897073
0.0046666
-9.71922
-1.18742
-10.3191
-1.58398
-17.9746
0.119718
-15.9536
-9.18844
-1.4241
-2.52261
0.497303
-11.0214
0.0271221
-17.799
-1.20427
-1.0305
-5.56905
-1.04025
-9.13651
-28.7406
-5.48203
-16.1674
-15.0925
-13.016
-0.943119
-3.78525
-0.899903
-10.8063
0.414472
0.561288
-1.59397
-1.84685
-1.53606
0.264118
-7.11211
-13.4406
-2.48095
-16.0632
-0.687003
-1.2622
-21.4914
-10.1504
-10.7457
-10.014
-2.04179
-0.993421
0.284475
-3.45171
-22.3579
-0.921731
-0.475734
-1.50525
-22.4818
-0.375881
-0.716808
-20.15
-1.72869
-17.7844
-3.50516
-0.99685
-4.35763
-2.31586
-3.56254
-0.908592
-21.6329
-7.74424
-8.0103
-1.78612
-1.15193
-0.98303
-0.936625
-7.57213
-1.24204
-1.55493
-1.93607
-1.32123
-0.537241
-2.01044
-24.4118
-7.23286
-0.653367
-17.2635
-0.671364
-1.59114
-25.1144
-6.93572
-15.5032
-2.67654
-1.24484
-16.0698
-3.75677
-15.548
-14.9352
-0.0233558
-1.68887
-1.02604
-2.24771
-5.47411
-28.4298
-0.190472
-22.2139
-7.64616
0.455333
-7.56602
-0.881756
-12.7568
-4.93919
-20.7933
-3.26977
-10.295
-19.9446
-1.82049
-1.94009
-19.1706
-14.994
-3.22739
-14.3321
-0.439733
-1.07874
0.239734
-17.8043
-1.48422
-5.41529
-19.2674
-23.4778
-20.4974
-18.4037
-8.69957
-6.30285
-0.822209
-5.00347
-22.2739
-25.0045
-13.4242
-1.4289
-19.3294
-1.31064
-0.461692
-1.28943
-7.87976
-7.27985
-1.64822
-2.11533
-0.196482
-0.432399
-2.44133
-22.3502
-7.23718
-8.95219
-0.986742
-0.0760226
-3.13779
-17.1272
-1.68085
-10.3346
-19.2586
-11.3051
-2.24555
-1.12742
-0.922283
-13.3764
-16.9138
-1.58957
-1.2427
-2.57205
0.37763
-10.5927
-32.2282
-10.2025
-0.804278
-11.7886
-1.73052
-6.17813
-6.33471
-3.75193
-0.112645
-1.50556
-26.7646
-16.8636
-10.2902
-19.1997
-1.45422
-2.70832
-23.7869
-2.00972
-1.56023
-19.5498
-13.8761
-2.32697
-1.7209
-3.27357
-0.875784
-2.93167
-11.3258
-1.43507
-2.01509
-7.88288
-13.2246
-2.80691
-2.11774
0.209085
-1.18662
-29.6214
-1.20943
-18.1635
-7.16587
-19.4712
-28.6547
-34.2715
-22.348
-19.1777
-2.34274
-1.46921
-3.91925
-1.65286
-1.8993
-2.14057
-3.86324
-11.4325
-2.69516
-10.521
-1.3111
-31.7334
-2.13644
-11.9567
-22.2378
-36.609
-0.942993
-9.03328
-4.09927
-3.87876
-1.50104
-1.86832
-10.9734
-5.38193
-26.3995
-1.7868
-23.5261
-30.9243
-20.1763
-20.7807
-32.9154
-19.0217
-24.4142
-0.32163
-1.39366
-1.97247
-0.576598
-18.9816
-1.74036
-24.5377
-11.4565
-2.35232
-15.9455
-1.04847
-2.32945
-19.8458
-5.14766
-24.9088
-10.2855
-0.867293
-1.68084
-8.02491
-39.0306
-8.9722
-1.40116
-2.91179
-1.89598
-1.44626
-1.72723
-18.5569
-5.97885
-3.40395
-2.3738
-0.729754
-30.0221
-0.793705
-0.775668
-38.9599
-1.03924
244.618
70.3093
111.7
75.8662
72.4707
55.3179
46.7667
37.6754
24.0224
218.726
66.5077
95.5755
68.1639
64.2685
50.8898
44.4069
37.324
30.3572
185.378
57.5218
79.6259
59.2327
56.4362
46.9418
41.3089
35.1783
28.7806
152.285
43.1603
62.3328
49.0728
47.2893
40.8091
36.5509
31.8547
26.6643
119.182
27.9723
45.0811
38.0368
37.4082
33.5275
30.7473
27.6651
23.6181
85.3864
16.1995
29.2243
27.2452
27.4531
25.6075
24.0544
22.1581
19.6948
52.2287
11.3259
16.0692
17.647
18.1885
17.8289
17.2535
16.383
15.2027
22.3682
9.56162
5.57361
9.58553
10.1614
10.8126
10.9396
10.8774
9.20134
-2.67117
5.41214
-3.01314
3.05516
3.72337
5.04177
5.64457
5.99032
5.94085
-21.6863
-0.259167
-9.19327
-1.69918
-0.887732
0.804835
1.71322
2.39919
2.73642
-35.8427
-5.31542
-12.6073
-4.54989
-3.67154
-1.90532
-0.899863
-0.109221
0.769945
-42.9843
-5.88994
-12.7762
-5.51954
-4.8458
-3.3077
-2.42205
-1.78328
-0.164211
-40.0205
-2.12143
-9.94068
-5.00605
-4.8306
-3.72099
-3.03902
-2.39547
-1.64843
-33.7838
1.78455
-6.55791
-3.99094
-4.27164
-3.59355
-3.10049
-2.49227
-2.15335
-28.4073
3.66842
-3.97261
-3.12862
-3.64594
-3.29048
-2.93785
-2.4465
-2.00068
-22.3448
3.77383
-2.40728
-2.64593
-3.17753
-2.99946
-2.71965
-2.32055
-1.79938
-17.5239
2.05878
-1.93385
-2.57869
-2.92497
-2.78422
-2.51284
-2.17354
-1.43767
-15.1201
-1.21213
-2.51831
-2.82928
-2.83963
-2.62793
-2.32055
-1.97261
-1.35128
-13.0327
-4.00213
-3.15443
-3.05052
-2.77195
-2.48268
-2.15765
-1.81586
-1.39568
-10.4913
-5.06021
-3.37157
-3.04844
-2.61838
-2.28065
-1.94405
-1.59567
-1.17422
-8.60764
-4.95203
-3.27679
-2.84896
-2.38784
-2.04674
-1.73388
-1.40655
-1.12558
-7.69624
-4.22343
-3.03193
-2.53931
-2.12057
-1.80177
-1.52133
-1.20765
-1.1985
-7.6761
-3.00939
-2.69131
-2.16445
-1.82574
-1.55306
-1.31737
-1.05155
-1.12071
-7.92725
-1.60803
-2.54974
-2.04379
-1.75184
-1.48603
-1.22072
-0.931168
-1.05333
-7.17469
0.231726
-1.35382
-1.03952
-0.942006
-0.958342
-0.866064
-0.670509
-1.90449
7.33048
6.93793
6.69811
6.79629
7.04499
7.43878
7.99167
8.72582
9.65406
10.7815
12.1028
13.6015
15.362
17.4964
19.8943
22.3842
24.9015
27.3635
29.6761
31.7627
33.5832
35.2435
37.0081
38.212
38.2496
38.2912
39.3622
41.0779
42.6829
44.3098
46.415
48.4883
49.9642
51.0782
52.1489
53.1884
54.2283
55.4048
56.8146
58.7149
61.2477
64.4194
68.3378
73.2618
79.4635
87.1184
96.509
107.642
120.171
133.904
148.608
163.723
178.853
193.677
207.693
220.591
231.518
240.509
249.28
1.26445
0.505507
-0.143557
-0.707875
-1.26628
-1.82594
-2.39415
-2.98107
-3.59817
-4.25427
-4.9508
-5.58278
-6.02107
-6.28629
-6.50219
-6.74648
-6.9041
-6.84318
-6.55424
-6.02577
-5.23357
-4.14986
-2.73585
-1.01741
0.595771
1.62871
1.98023
1.45521
0.410584
-0.549448
-1.26048
-1.76457
-2.15715
-2.48169
-2.72357
-2.88641
-2.95016
-2.87739
-2.62535
-2.14104
-1.34759
-0.363985
0.61394
1.54414
2.46968
3.45293
4.52422
5.76367
7.45689
9.82786
12.9428
16.7483
20.8002
24.5196
27.9621
31.8823
37.2749
44.2329
53.2439
3.2176
3.03681
2.84118
2.75662
2.7477
2.81056
2.94264
3.14067
3.40136
3.72218
4.10255
4.54737
5.05133
5.60408
6.199
6.84977
7.58301
8.397
9.28355
10.2338
11.2387
12.2835
13.3445
14.3587
15.1982
15.8751
16.4221
16.819
17.0334
17.2018
17.3935
17.6202
17.8646
18.1474
18.4971
18.939
19.5034
20.2263
21.1476
22.3088
23.7605
25.5357
27.6868
30.2805
33.4094
37.1574
41.5895
46.8313
53.0952
60.3267
68.2976
76.7317
85.3755
93.6818
101.186
107.94
113.954
119.593
123.042
0.885002
0.505302
0.164703
-0.0966308
-0.306832
-0.468641
-0.585418
-0.660443
-0.696642
-0.695287
-0.655102
-0.57148
-0.437892
-0.254103
-0.0217785
0.256257
0.588116
0.980318
1.43764
1.96002
2.54353
3.17598
3.83712
4.49272
5.09028
5.58424
5.9443
6.15541
6.22867
6.20378
6.11213
5.9724
5.79731
5.59932
5.39189
5.18872
5.0062
4.86228
4.78206
4.79133
4.92612
5.22213
5.73374
6.52503
7.68538
9.30357
11.4762
14.2795
17.7877
22.0148
26.9051
32.3397
38.1871
44.2178
50.2073
55.9804
61.3373
66.6195
71.9619
1.88675
1.72991
1.56909
1.48642
1.45736
1.47884
1.54889
1.66471
1.82304
2.0204
2.25391
2.52086
2.8188
3.1462
3.50143
3.88374
4.29333
4.72911
5.19034
5.67359
6.17359
6.68136
7.18446
7.66708
8.10889
8.49588
8.81721
9.06858
9.25126
9.37667
9.45891
9.50855
9.54027
9.56998
9.61249
9.68927
9.82015
10.0248
10.3356
10.7818
11.4011
12.2347
13.3353
14.7593
16.575
18.8438
21.629
24.9719
28.8915
33.3603
38.3078
43.6021
49.0836
54.5659
59.8582
64.765
69.1786
73.3553
76.4309
1.06681
0.867936
0.693892
0.577149
0.500727
0.463536
0.464604
0.502195
0.574818
0.680732
0.81967
0.990712
1.19385
1.42877
1.69505
1.99195
2.31893
2.67219
3.05279
3.45657
3.87867
4.30862
4.73469
5.14556
5.51871
5.8462
6.11038
6.30875
6.43584
6.49254
6.4868
6.41507
6.29291
6.13413
5.93886
5.73469
5.52859
5.31959
5.15313
5.0467
5.03241
5.1463
5.43306
5.94441
6.74523
7.88122
9.42428
11.4157
13.9006
16.8962
20.3902
24.3186
28.5853
33.0522
37.5812
42.0105
46.2046
50.2902
53.8928
1.39339
1.29472
1.20808
1.16863
1.16296
1.18967
1.24688
1.33365
1.44784
1.58656
1.74943
1.93475
2.14294
2.37268
2.62285
2.89385
3.18834
3.49376
3.81984
4.15872
4.51248
4.86732
5.21573
5.56114
5.86394
6.1438
6.36692
6.5481
6.67376
6.73878
6.76325
6.71038
6.61444
6.50066
6.3313
6.18241
6.04425
5.87087
5.78145
5.7522
5.815
5.99977
6.335
6.86237
7.65213
8.68557
10.0677
11.7901
13.9104
16.4423
19.3722
22.6493
26.1801
29.8549
33.5354
37.0631
40.3123
43.3324
45.794
1.27068
1.16836
1.08908
1.04818
1.0307
1.04301
1.0748
1.13991
1.22534
1.31536
1.44446
1.58924
1.7617
1.96295
2.18176
2.43566
2.71477
2.95253
3.24333
3.56022
3.91497
4.25958
4.5866
4.9518
5.20879
5.48463
5.6633
5.83026
5.93989
5.98914
6.01879
5.88156
5.70025
5.53534
5.17867
4.94594
4.74416
4.17146
3.75725
3.36141
3.01612
2.73931
2.54912
2.49126
2.85418
3.15914
3.9601
4.82145
5.88773
7.43569
9.56726
12.2487
15.1157
18.2313
21.588
24.9815
28.1341
31.2498
34.0892
1.41407
1.40577
1.39266
1.41529
1.44769
1.50657
1.57316
1.64051
1.7449
1.90742
1.98
2.13256
2.32125
2.47679
2.70968
2.83172
3.11103
3.38054
3.643
3.87437
4.17731
4.43658
4.71262
5.0503
5.23461
5.50426
5.61724
5.75718
5.91097
5.7357
5.90715
5.67577
5.36311
5.18508
4.69601
4.42417
3.87117
3.17265
3.01816
2.59583
2.26901
2.14263
1.92484
1.99147
2.28441
2.51641
3.1
3.61369
5.26992
7.01437
8.92844
11.086
13.5748
16.9288
20.0435
22.9102
25.682
26.3961
27.1118
-9.04505
-8.8491
-8.18897
-7.31982
-6.48021
-5.8331
-5.29682
-4.61697
-3.86796
-3.33484
-2.86364
-2.22361
-1.62535
-1.07445
-0.34467
0.431795
1.0457
1.57686
2.16117
2.81055
3.48115
4.11565
4.70977
5.60646
6.67756
-0.524269
-0.539304
-0.890681
-1.02035
-0.821644
-0.503746
-0.121888
0.428664
0.935479
1.05189
0.788092
0.347599
-0.104566
-0.385832
-0.279309
0.174213
0.702753
1.14919
1.44189
1.51803
1.41664
1.37616
1.58476
2.11558
2.4388
-2.13728
-2.13905
-2.00565
-1.78972
-1.45404
-1.08476
-0.714356
-0.338063
-0.0334807
0.067567
0.00245237
-0.13477
-0.271441
-0.327065
-0.206913
0.0619739
0.384823
0.707286
1.00365
1.25841
1.48025
1.72294
2.02659
2.41376
3.00206
-1.48125
-1.49081
-1.34269
-1.18499
-0.972722
-0.738447
-0.49799
-0.264367
-0.0719416
0.0369736
0.0717304
0.0699017
0.0715831
0.115519
0.233496
0.414187
0.618315
0.812804
0.976169
1.0986
1.18455
1.25109
1.30459
1.31282
1.3818
-1.41008
-1.39516
-1.23872
-1.08446
-0.895816
-0.699705
-0.503619
-0.321582
-0.168968
-0.0605778
0.00861248
0.0597144
0.116123
0.196299
0.314465
0.463914
0.62555
0.781573
0.92086
1.03966
1.14382
1.24535
1.36108
1.48694
1.76256
-1.29445
-1.23542
-1.07353
-0.935934
-0.772719
-0.612266
-0.450565
-0.302493
-0.173018
-0.0652792
0.0202721
0.0980398
0.183416
0.281628
0.400058
0.532201
0.666096
0.79012
0.89622
0.98145
1.04872
1.09935
1.14175
1.1568
1.25078
-1.11372
-1.14944
-0.969173
-0.850123
-0.701139
-0.565158
-0.422184
-0.29405
-0.178033
-0.0698183
0.0208043
0.108982
0.209427
0.315773
0.435913
0.562323
0.686388
0.800876
0.900582
0.98386
1.05343
1.11159
1.17433
1.22795
1.37118
-0.922669
-1.07459
-0.878573
-0.783701
-0.638564
-0.517683
-0.378821
-0.264986
-0.164818
-0.0569696
0.0292588
0.11753
0.23385
0.347691
0.470532
0.596412
0.717036
0.82727
0.922976
1.00328
1.07474
1.1347
1.1987
1.251
1.34923
-1.01995
-1.0856
-0.791497
-0.719103
-0.59255
-0.51957
-0.401191
-0.305071
-0.169407
-0.0588635
0.0418748
0.119457
0.216495
0.319002
0.456628
0.580335
0.70182
0.816364
0.941542
1.03031
1.10651
1.19004
1.24661
1.26326
1.31607
-22.0066
-21.9049
9.1572
7.49718
0.825809
0.586418
-1.13463
1.50229
9.07122
7.93982
-2.4258
1.33913
-64.2467
-0.793127
-3.07241
1.98589
7.8198
7.14658
-0.492955
-12.302
-25.973
3.06652
3.79699
3.22907
1.26264
2.10987
1.21794
-0.657975
-12.4611
6.13769
16.6064
2.44456
0.974244
-24.3469
5.88156
1.24675
2.20543
-2.17536
-0.222408
4.32364
-4.79766
2.70346
2.54811
-0.817454
0.540512
2.04079
-4.16269
-2.9704
-3.66694
-2.71613
-3.9554
-5.15732
-40.6103
6.94892
-1.14278
9.06809
-0.77395
-37.6685
-0.289268
-2.3671
1.40283
9.22977
0.799946
2.31609
1.42684
-0.863745
0.522706
2.88411
-53.3764
-3.09902
8.96785
3.27097
0.778891
-12.0278
0.484339
-30.1016
-11.8419
-4.60513
-0.33779
6.7434
-23.9867
1.30105
1.86505
-1.13397
1.10103
1.42749
0.861471
-4.67627
0.158329
0.409352
1.88174
-2.53645
1.59083
1.44447
0.673486
-2.02333
2.0983
-3.42003
2.67499
-2.48334
-0.204387
-4.87953
-0.273346
2.38897
-0.130242
0.0158807
3.90941
-25.275
1.99126
6.7566
2.59362
1.73885
5.78097
2.03393
-42.6529
-3.62665
-5.03155
5.28587
-49.5468
1.94179
2.21734
1.63352
3.49447
1.42268
1.36449
2.52639
-5.32454
-12.7096
-0.683732
-3.28024
1.87945
-12.1065
-3.26746
-3.81833
-0.767545
0.808679
0.681637
-0.0857637
1.55327
-12.0679
0.713809
-1.6045
-2.90564
2.24856
-3.01512
1.82066
7.3879
-15.7724
1.49353
5.7063
-1.63372
-1.07603
7.24293
-8.13746
1.09473
-2.49859
0.348202
4.31673
-10.0742
3.66191
2.54668
9.00972
1.81179
-3.34842
2.14009
-1.01523
-0.828493
0.891243
2.80711
0.241738
-0.734214
2.49669
2.72956
-1.38348
-1.3574
-0.455695
-14.5873
-2.80839
-3.93397
3.11458
-9.28421
2.66283
-40.1463
-6.24663
-0.423035
2.97008
-1.53627
1.9399
-2.3606
1.60855
-2.74944
-2.99065
3.1888
-0.360348
-4.63096
-1.52248
0.517266
2.97674
-3.23511
-40.9628
-57.9842
2.99211
1.47057
1.49342
-1.41053
3.97991
3.21061
-0.254155
-3.5053
4.23869
-0.150092
1.5269
-10.1697
-1.52645
-1.38349
-2.59742
0.340872
3.17576
5.63148
-0.379043
-0.465777
2.72548
1.22558
9.20896
4.95152
-5.18691
1.66337
7.79441
1.98528
0.736012
-2.12014
1.33394
2.56968
2.00557
-1.41688
5.80069
-11.1465
-0.628882
-8.95672
-8.30284
16.6953
1.36896
2.43846
-0.652744
0.708922
1.12543
2.44144
-0.148674
1.92308
2.65217
2.00811
-0.463579
4.56964
-3.45727
2.30245
0.49397
5.77637
-11.7002
-10.2523
7.24062
1.98155
-0.772191
1.58928
0.942519
-12.0973
1.55296
3.66016
7.73756
-1.99167
0.938079
-21.0676
3.67285
2.6031
3.16832
-1.15228
7.76901
1.91752
9.01812
-0.820391
-4.53055
-0.762985
-1.49178
3.38518
1.26987
-3.85925
1.59515
-0.131929
5.27028
-1.63928
-2.69861
-2.77392
2.01792
2.55956
-2.88093
-22.4953
-2.45611
3.77468
-0.385728
3.6416
-3.85581
-3.96317
2.48005
4.1009
1.48037
5.48485
2.68019
-26.5033
2.56421
-12.1757
1.4152
2.63656
-0.686894
-2.01613
-0.79845
2.59486
1.66926
-4.31905
4.20512
1.3377
-12.2302
-10.9616
2.01628
4.10023
16.3637
1.10621
1.5775
-5.00027
-29.506
1.44724
-35.6905
1.94528
-5.29631
-0.478091
7.03453
-5.14363
1.38233
1.52352
1.86231
1.85035
2.45129
1.53988
1.22389
-3.54863
-4.16998
-12.1101
0.308975
0.189999
2.6689
0.827595
-2.85632
2.32612
1.87475
2.38285
-11.3054
-2.69306
4.8447
-7.69993
-1.05187
2.35822
-1.32211
-3.53699
4.21548
3.0238
-5.25743
2.75223
0.673072
2.46497
-4.70797
1.49844
-2.03728
1.01371
-9.06686
-8.79447
8.05461
-53.6663
1.80893
1.77925
1.9349
3.70402
6.55303
4.17919
1.86259
2.12526
-1.0829
-0.819306
-16.6567
2.16052
-12.2873
-1.68235
-2.48999
-1.33002
3.89225
-0.282883
6.44568
-7.04474
7.67951
2.46739
2.53072
4.13817
-6.89474
1.36618
2.71118
1.07245
-2.32947
1.10093
2.99152
-0.676422
-0.169566
-0.802571
6.50575
7.28998
1.41917
-3.77052
1.44397
2.12995
4.28775
-3.7703
-2.59145
4.01145
-0.352975
2.07956
3.47701
0.710418
-0.371049
3.17641
-4.36451
1.87724
4.00369
4.36649
2.47022
1.35485
0.447201
-1.57514
-0.251483
-1.08071
2.58959
1.96693
2.54051
2.64311
4.02956
3.51921
-9.13249
-2.07482
-1.26061
-54.8176
9.20234
-0.605781
8.53087
-0.261916
-0.351083
8.12189
2.53835
1.72955
-4.00931
-0.213358
-2.95435
-0.938421
1.5611
1.90901
-12.9816
1.81055
-1.47004
6.83396
-10.5592
-4.40217
1.01894
0.0564809
9.26512
3.34815
-0.0508494
-1.18815
0.860725
4.7633
4.14949
1.49894
-36.7466
-1.43838
0.510742
-16.226
-16.0195
-1.51085
0.0371487
2.86177
1.24193
-1.97537
0.92756
1.22279
3.94489
2.45659
2.51896
-9.53649
2.04578
1.69843
6.62063
1.42934
-0.0886743
-5.87354
1.42114
2.67216
-2.59788
2.53273
-2.085
1.54188
-0.668363
-16.855
-20.6165
1.64179
1.64511
-0.877462
2.24636
2.72034
-11.8291
-0.347255
-1.24638
2.97251
-4.70586
5.25578
-3.69661
1.74643
-1.63134
-1.82876
-3.05811
-12.2774
8.71092
-24.3803
4.01762
-4.3841
-2.60643
3.53811
3.50935
-0.324396
1.66653
8.12999
8.71556
1.88047
-1.37514
2.16969
-3.85753
-3.45693
1.9833
-15.1572
6.91727
2.38567
3.23076
2.39341
9.22579
1.79064
-0.495709
1.41939
8.93609
-0.717022
-0.887494
-0.744902
-3.45048
-3.6599
-4.23427
1.14786
-0.173969
-51.5746
-3.65679
-1.43386
-7.17811
2.04095
-43.3546
5.91017
6.94309
-1.51773
-0.365025
2.53424
1.52699
-2.16839
4.84043
-1.56729
0.00385136
0.567536
6.28941
-3.04598
-3.67119
-0.478736
1.68973
-11.6726
-49.3529
2.74828
-1.048
1.70904
3.08316
2.88844
0.588066
-2.48249
4.10912
0.497316
1.04865
2.5234
-11.4855
0.901044
-0.404173
-32.6294
-3.86456
0.880861
2.64787
-3.52328
-0.665325
2.77876
4.24799
-12.6526
2.36357
1.53814
5.95894
5.27827
2.52731
2.64872
1.89532
1.22458
2.79199
-0.195984
-31.6787
3.67089
0.262387
9.2485
2.81634
1.04704
1.79204
-2.53988
-1.19187
0.699738
-2.50425
-1.51845
-0.641227
3.74833
0.326962
0.704227
0.73448
2.90403
1.90657
1.96231
-24.0252
1.23706
1.39488
-1.06691
-12.0112
-1.69587
-0.762335
-0.879429
2.81779
0.767605
3.01779
1.95641
-1.14076
-2.689
-10.1785
-11.2857
3.08411
5.97724
2.34715
4.12296
6.37149
-3.08674
23.8076
-19.3268
2.67966
-3.81413
6.3289
-3.41545
2.2864
0.841729
1.64167
2.26003
8.51003
-0.755554
-45.5123
0.640729
0.492736
1.19774
-3.74262
2.81549
1.97801
-3.304
1.25693
1.20758
6.15872
2.64028
-32.3767
4.08403
1.87306
3.58404
-0.761122
2.04721
-2.94126
3.0767
2.3094
-0.587248
3.98109
-0.277524
1.77671
0.394583
2.63438
2.14046
-0.703048
1.83381
2.66127
-0.258344
3.10257
2.27504
3.19906
3.97945
-2.12189
-8.6919
-1.49906
-3.65971
-1.26124
2.89159
5.70589
2.39448
0.430091
0.98916
2.99023
1.81721
-1.52771
1.83558
1.27121
-48.8076
-5.74536
9.60108
-0.521057
2.57683
-0.70167
1.2948
-1.41866
-19.8508
2.14444
-0.672019
-3.90226
-1.33601
-2.73811
-19.2253
-2.68901
-2.26254
8.0965
3.1799
1.79989
2.8156
3.67837
1.71501
-35.3486
-2.47964
-3.99958
-10.7837
-1.10143
3.61801
1.40812
1.46934
-1.27303
9.17088
1.39971
-1.319
-8.02109
-37.5829
-4.24587
2.99412
2.84623
-0.100652
2.86277
-6.21398
-1.38264
3.93737
-9.80235
0.342519
-14.5281
2.04069
3.03396
-0.48942
0.481906
-0.0730851
3.70591
2.47053
0.76194
1.5598
1.99718
2.55545
1.629
1.80272
4.28757
-4.07095
-1.04321
2.85516
1.80177
2.40003
-11.9507
1.1396
2.0367
-0.229281
-17.7726
-1.48824
2.89151
0.760722
-3.42747
9.11468
-15.2348
1.66072
-15.9299
-33.3202
-8.75344
9.24834
-3.80905
-0.912841
-1.94597
3.14196
2.65353
1.34273
0.981616
-0.973681
9.14635
2.47245
1.12959
-2.89086
0.786494
9.18587
7.91379
3.46679
2.54713
8.95632
-2.9975
-4.26548
2.42949
3.60033
2.87881
-17.1388
-2.35531
2.60628
1.10824
-0.0807607
-13.0585
3.95357
0.499155
-2.13074
-0.84853
1.63795
9.07152
-0.600506
-18.8598
1.7722
-17.441
3.91875
1.58134
-31.6925
3.10045
-2.3596
2.36137
-0.413769
-20.011
-4.92575
3.02164
3.76966
1.46976
-4.49091
-11.9404
9.16411
1.9903
-44.3368
-2.34833
1.92742
0.130289
-0.219344
-2.32126
4.24288
-11.2632
2.08859
1.92764
-9.09902
1.76723
8.76589
8.43016
-16.8845
-3.7209
-2.30055
-2.14476
0.370413
3.60878
-3.23507
-1.35132
-1.05613
1.20783
-0.234272
-12.6953
1.596
-0.95522
-18.0636
9.19511
3.71403
3.38324
0.129855
-0.925676
1.70488
-12.5676
-2.47252
-13.9354
-3.37998
1.17088
-3.22386
4.93679
-23.1999
-23.5172
-1.74714
-1.18655
2.93589
-1.50157
-3.80689
3.50221
3.75305
-1.13996
8.01976
2.16581
-0.521959
-3.7503
2.3159
-0.00900978
-1.30452
-3.47953
-3.2461
-4.0218
-3.47902
4.42317
-0.699709
-1.51458
0.511429
-2.40907
-32.6875
2.9899
1.4733
1.56106
3.06665
-16.654
-0.209029
1.70576
-3.89875
-1.50091
-11.6587
-3.11692
1.19461
1.53747
8.64191
-3.89198
-0.747466
-17.8912
2.21304
2.33385
-2.1107
6.17084
-2.75161
-6.56191
6.88061
1.73339
3.46051
-1.73078
1.70223
2.9939
1.34348
6.41256
0.196433
-0.285792
-12.2962
-0.842864
-0.0156262
0.991569
3.44275
2.87333
-0.0972793
2.61252
-27.2908
2.86487
1.05365
-3.92501
-12.0764
8.5433
1.9186
1.71933
-1.4241
3.4253
-4.65837
0.604708
-0.193182
5.9991
1.77533
0.998981
-1.21092
0.772027
-3.56174
5.93827
3.88988
2.81405
-1.89716
-1.65016
-4.9124
1.31129
-14.4528
2.25673
2.5805
1.94866
-3.92616
-8.93421
2.97501
7.25715
3.95208
-3.12382
1.63717
-3.24235
0.921147
1.16413
3.01718
-0.481571
-1.64707
1.92753
-1.67585
-12.4118
3.36632
-4.16187
1.44357
2.79981
1.78654
-3.58708
2.2742
1.79251
-11.2806
-0.380439
-2.15357
3.09185
-4.19699
2.51574
4.6266
3.03733
-0.110493
1.50182
4.57374
-1.01957
3.45989
0.550223
-1.32521
-3.94257
1.93665
-1.26857
0.138162
2.84969
3.94854
3.71629
-3.07162
6.93766
-17.969
2.18349
-2.71859
6.14723
-0.405549
-13.124
1.80017
-2.48834
3.61103
-2.45706
1.49333
1.59123
-0.242838
-3.97267
3.13669
9.1773
2.75504
0.927773
6.31245
-0.14198
3.8698
0.098268
5.59298
17.8686
4.32937
-2.53882
2.51366
-0.838074
4.39113
2.54533
2.86392
6.99707
-29.8229
3.89825
-11.8664
-14.201
1.12268
2.86991
-3.20179
-3.25535
3.132
3.8429
3.33501
3.63762
6.38533
-0.310742
-4.13682
2.11806
1.45292
-42.8244
1.43794
-1.42908
-3.33809
2.69073
0.925328
2.87734
-0.500425
-13.0952
9.09756
-14.5907
-3.50862
-0.305578
12.8076
-4.75728
-4.89285
2.38725
3.25253
-10.8447
3.61695
-0.160305
-0.716192
-2.48554
4.0901
4.10355
3.71956
-0.785469
-2.31463
0.913355
3.81075
-4.11785
-3.91156
3.02754
2.64466
0.482549
3.30577
1.77792
-41.6372
1.36683
-10.933
1.46481
-0.69251
1.26092
-27.039
2.51959
-0.232518
5.68552
7.0356
-5.30944
-23.1726
8.12342
2.23833
-5.41247
-27.1835
1.77179
3.79387
1.71592
-0.20357
2.48181
1.35639
1.85333
8.20097
0.179082
-0.477713
-3.68155
-0.191169
1.12183
2.22942
-2.51108
3.07035
-1.5049
-2.99673
-0.0162313
2.63511
1.18408
2.76738
0.919295
-14.5981
9.16633
0.388072
1.60178
3.03272
-11.1209
-4.96302
2.05766
0.594775
0.230873
3.01886
1.06046
-0.64216
3.79937
-0.103265
-0.980019
-3.38383
1.72994
2.04128
8.63758
1.67724
0.552843
2.42478
8.39908
1.19615
3.64028
-48.2881
2.06709
8.98476
-3.87203
1.06095
-1.248
-0.944732
2.52823
1.46704
0.383291
-3.46321
2.3328
-42.3464
-0.0427801
-1.99236
-2.39732
-12.6478
-3.24786
4.1335
1.37297
-12.3413
-13.3435
0.30803
2.72464
4.01602
2.39489
-0.377168
2.10653
3.71568
3.37144
-1.81945
3.87585
0.507477
3.19264
-4.1128
-12.4901
8.37003
4.00459
9.24446
2.53693
1.54584
1.36214
3.53248
-0.300658
0.625652
-13.972
2.87971
-12.4236
-9.8875
-12.0896
-2.59899
-0.97673
-21.6608
-5.1691
-3.14043
3.00413
-3.75162
2.84851
8.99351
5.27838
-5.00391
-41.5845
-7.25328
-4.27199
-15.8793
-0.394192
2.4251
-1.44554
-3.55956
4.69913
-5.34622
2.98121
-12.1248
-0.857671
-3.85661
-1.52595
-0.150462
1.63254
-12.3872
1.68273
-1.19913
-11.9469
2.66308
-3.68679
2.10621
2.35997
-7.9945
-1.61806
0.732202
-38.1572
-3.97134
4.66182
-18.8579
4.77398
-2.60693
-0.511541
0.279962
-2.51799
-41.0211
3.16579
-2.86006
-6.28371
-25.6718
4.61967
-0.0118329
2.53945
-27.3306
-0.980917
-12.1373
2.37533
-3.31593
0.888554
-20.4827
-5.49959
-1.40933
3.36758
-27.7291
2.76995
2.24109
2.77994
-11.6267
-3.68071
1.4272
-2.60184
1.69368
1.59509
-3.43887
2.46735
1.5216
-45.3762
1.41018
2.69711
4.72943
1.67203
2.75973
3.21733
-1.27032
-3.73581
0.541802
3.72303
2.18509
-34.2512
-4.5911
1.41367
-0.827334
-0.231398
-3.80026
-0.882022
-0.853668
-50.1315
1.20133
-25.1854
-5.34822
1.31632
0.512677
3.63317
4.71749
1.16507
2.32995
0.166928
-0.651347
-3.75766
2.4395
-4.54617
1.25218
-3.69504
2.60654
-8.01377
-1.39591
-11.5863
-3.41433
0.100699
-1.19916
2.54547
2.59533
2.32818
-3.77744
-3.84668
-0.298427
2.4815
2.19549
2.9838
1.5276
2.12923
-1.07184
-3.37634
-12.6044
-4.83134
3.43809
1.13596
-29.9524
3.9111
-3.21466
2.85799
1.27839
-0.0780574
0.524289
1.44131
2.45086
1.4685
-1.41308
1.7728
-3.93358
-1.48314
0.819412
-15.507
8.90262
1.59634
5.8945
-2.58255
-2.90083
2.27942
-12.8346
1.82998
3.15236
3.22699
1.16686
13.4174
0.730059
5.25041
0.536833
-0.427533
-11.9943
1.67916
-3.38313
-2.24149
1.29126
-0.554904
3.8091
-0.237824
-16.908
0.328894
-3.48674
-0.713313
1.56617
-0.26662
4.03366
-0.92072
3.8458
2.40076
1.29968
1.1086
0.974892
-21.5604
1.69338
7.48245
1.66299
2.42753
3.2138
-0.276719
1.91198
8.48836
-3.40753
1.86134
-3.8937
5.25099
-12.3749
3.16379
3.70113
1.35624
1.06478
-3.84818
2.29362
2.39882
8.55048
0.272668
6.25752
4.62407
4.75369
3.04397
-2.0096
1.68597
1.96445
-3.62771
1.51373
2.94849
2.18271
4.00277
1.87332
-3.96855
-2.77575
3.91401
9.02636
3.18918
2.85421
-2.09367
3.51109
-4.10759
2.59117
-35.2496
-0.0371534
3.49112
0.900477
-0.569667
7.5591
0.118481
1.98955
-3.90151
-1.01921
2.05639
-31.3863
2.35253
-1.45795
-4.73419
11.0079
-20.92
1.49038
2.05412
3.78763
1.42454
8.33997
-3.93671
2.55104
5.16351
-4.7077
2.72622
3.43573
4.22705
-0.949402
-3.87003
1.15506
0.91004
4.69629
2.15522
0.832656
2.14934
-0.305144
3.0097
7.19872
-33.1927
1.09487
-33.7398
0.266496
-14.9205
-4.43478
-11.3062
-3.76968
4.38207
2.78688
-30.0797
2.69485
2.47272
-3.62316
1.95274
9.17211
-3.72468
-46.7794
2.52536
-2.32852
0.676396
-4.21959
0.352788
3.90768
8.65451
-0.542074
-15.4171
2.56537
3.73265
-0.534117
1.15758
-4.21865
-0.374212
1.03831
-6.15189
-0.581971
-3.6184
-0.16615
-3.03845
2.55294
4.59921
1.24961
0.347814
-29.7808
-2.61937
-16.7169
0.685157
-2.07359
-12.0846
4.64941
-12.0512
-1.42558
3.01952
-17.7254
-3.83195
3.99243
-0.232074
0.524489
-4.63363
1.36522
3.29027
-12.6519
-18.5863
-0.714822
-4.18395
-14.4473
0.786862
-0.40794
-1.10631
-0.113379
-17.4456
-0.169129
1.82334
1.46371
6.57581
1.01111
-0.972428
-3.81452
1.12074
-1.53998
8.31323
1.43765
-3.51482
2.66017
-17.2136
3.03528
1.60568
1.75888
5.45712
1.89272
0.910225
4.03037
0.151444
4.09693
-2.80918
-17.2161
1.52116
-16.7232
1.11257
1.46751
2.4171
2.43392
2.00508
-4.23806
3.29889
-2.48932
-3.46487
-2.23219
-11.7643
4.50916
2.75995
-0.913341
2.5502
0.854751
2.44827
1.40853
1.03749
-2.5837
3.73005
3.96346
1.23446
-0.199959
-0.562566
-2.09356
-1.85117
-1.17478
1.79536
1.68585
1.51988
7.16644
0.0143387
1.18946
1.87555
-0.276784
1.67847
10.892
3.09735
3.23448
-1.21899
-3.80849
-27.1898
-0.244722
4.45284
-1.05062
-3.00738
-3.78822
0.646549
1.66092
-1.00057
2.88762
1.25396
-0.278576
-3.76999
-1.59304
1.36185
2.23056
2.34303
-0.15251
-3.63544
0.653225
2.69509
1.49911
-0.0336608
-3.83542
2.73229
-8.1872
4.29224
0.0184018
0.180154
2.8091
-4.0297
-1.62664
2.46984
-5.36972
-16.3258
-0.994146
3.22345
2.23212
-12.1622
-2.83111
-4.55649
1.69738
-12.4054
2.64816
1.92995
6.7459
-3.82505
1.33109
1.74364
-1.07436
-2.74472
5.73901
0.823093
-3.90187
1.40955
4.56273
2.25683
3.77851
7.62351
3.43275
2.5587
4.13562
-4.23123
3.74097
1.05729
0.698863
-1.21851
-1.25619
0.314207
-29.4412
-1.27818
-1.64232
3.28322
1.93501
4.3441
3.86268
2.53159
1.43367
-18.7745
4.31026
0.531901
4.54227
5.16481
2.16227
0.185569
4.05562
-0.525194
1.28002
-15.3273
2.42598
1.89402
2.70364
2.7597
1.74938
-4.49599
3.06044
0.618441
3.93035
5.04981
-12.2826
1.55645
2.75948
4.53326
-3.79431
1.14995
-3.91829
3.50469
-14.2198
2.99838
-2.06376
3.56109
-2.55082
1.72441
-4.27175
-0.677254
-7.72858
-2.24816
-3.19724
-0.988551
-4.99873
1.7309
0.498473
1.68049
-4.18888
3.96246
0.189785
-14.2167
-3.1734
-2.25261
3.65141
-4.43781
0.228195
2.44685
1.32748
-1.57368
4.20966
-3.76953
2.39466
0.684738
4.55005
3.40581
3.33609
-0.258916
2.76106
1.5205
-3.82388
-1.50711
0.654548
0.627324
-3.49677
2.10441
2.45605
-4.96222
3.58974
8.67397
-1.03373
2.57974
-0.266732
-12.4454
1.85043
3.18947
3.18252
1.27589
3.67881
1.43098
-3.56146
0.90469
-11.6206
-0.741751
-0.337408
-3.98548
-0.719815
-0.841136
3.78954
0.768011
2.17246
0.942433
-53.9365
-26.2818
2.80871
2.559
1.825
-11.5027
0.0419447
-1.0462
1.00716
-0.337199
0.477138
1.75124
-2.3973
-0.146632
-24.0727
-14.3286
2.91818
-8.4748
0.960044
-15.9291
-1.51786
1.37391
2.50159
0.275817
2.55978
2.18285
-10.7176
8.25892
4.86686
-3.8359
-13.5969
2.60581
0.975886
-0.338156
1.1046
-1.37719
-5.53345
1.73235
-2.90981
-14.6893
-1.93528
4.08502
0.968677
1.64913
6.25413
-2.31553
3.28981
-3.93816
3.73863
4.22278
-0.243649
-3.34553
-14.1037
1.56564
3.70994
4.70136
3.12224
2.45552
-1.60797
-14.031
2.50165
1.53734
-3.85054
3.44916
-14.254
0.230514
2.00559
3.46887
-3.64273
2.66727
1.85127
2.81782
3.01077
-0.616141
2.27613
-3.65555
-0.465327
1.89835
2.7722
1.74554
-14.0819
-0.62615
0.597956
-3.57685
-4.09362
-0.323636
-15.6428
4.04365
-4.07638
-16.5649
3.9191
-0.61215
2.33588
2.18689
0.572135
-37.3999
-1.39054
17.3099
0.262847
-1.68027
8.2541
-4.92468
-11.7605
-1.2602
-1.82567
3.2038
-0.307479
1.38276
1.84128
3.51991
-11.6934
-0.838567
2.65224
-15.799
-0.779744
-17.4314
9.02796
-3.84874
-4.12863
-3.95836
7.62827
-0.6238
4.04223
-0.212706
-19.5287
-1.56922
3.50837
-1.47446
0.731815
-3.82178
2.54027
-0.17344
8.24382
-3.36355
-0.362058
-14.6373
-0.828394
4.00329
-4.18725
2.97515
0.29825
2.4582
4.11828
2.22359
-0.542574
4.06337
2.11047
-14.9323
0.664507
-0.986659
-0.669471
2.68957
-0.17335
-15.7257
-1.76284
-0.795383
-13.3305
1.88979
4.06227
2.44444
-4.3449
-12.3379
-4.04283
2.14204
2.59793
2.9382
-3.92451
-0.796374
-1.48787
1.96957
-1.67049
2.22173
-0.617377
-47.9094
2.76086
3.97309