/*--------------------------------*- C++ -*----------------------------------*\
  =========                 |
  \\      /  F ield         | OpenFOAM: The Open Source CFD Toolbox
   \\    /   O peration     | Website:  https://openfoam.org
    \\  /    A nd           | Version:  10
     \\/     M anipulation  |
\*---------------------------------------------------------------------------*/
FoamFile
{
    format      ascii;
    class       surfaceScalarField;
    location    "550";
    object      phi;
}
// * * * * * * * * * * * * * * * * * * * * * * * * * * * * * * * * * * * * * //

dimensions      [0 3 -1 0 0 0 0];

internalField   nonuniform List<scalar> 
16133
(
1.84491
-0.0168569
-0.149966
-1.67944
-1.60822
0.541768
-0.681138
1.74758
-0.472085
-2.48322
1.87552
1.07976
-0.295409
0.133965
-2.62937
2.7908
-0.554658
-0.104104
3.32215
-2.66341
3.76876
1.77684
-4.65987
-0.885826
-2.56552
0.851615
1.53783
0.176055
0.021936
-2.51425
0.590682
1.90162
-1.51009
2.31731
1.52034
-2.32757
0.904184
2.95129
-0.525345
-3.3302
2.0406
-1.89279
0.552776
-0.700598
2.8422
-0.925753
0.811367
-2.72781
-0.047268
-3.41053
2.01171
1.44606
1.05283
-0.903774
0.203316
-0.352372
1.19118
0.225684
-0.36404
-1.31167
0.947883
-2.66028
3.02404
-0.311076
0.150564
-0.743263
-4.23638
1.42286
3.42569
-0.612227
-3.9639
3.36491
-0.911117
-0.103837
2.01641
-0.0676596
-0.492808
2.09229
-1.73768
0.138182
-0.448601
-2.5578
2.71098
-2.86031
2.88735
-1.33873
4.687
-3.63384
0.206558
-1.25973
-3.13763
3.94952
0.0922798
-0.00303691
0.00505839
-0.0638045
0.0617829
0.0104063
-0.00673446
-0.0080212
0.00434931
-0.264007
-1.73423
1.60391
0.394328
-0.0340087
0.0590464
-0.0574507
0.032413
-3.93723
2.65209
2.3531
-0.539221
-3.55689
1.74299
-0.670502
0.662602
2.04849
0.841239
-2.29728
1.47797
-0.00295406
0.187061
-0.0498993
-0.134208
-2.26284
-2.25641
2.27258
2.24663
-1.14182
0.686417
1.25773
-0.802326
-1.80859
-3.27215
2.81787
-0.0127704
0.0668188
-0.0800411
0.0259927
0.043216
0.0822184
-0.0227786
-0.102656
-3.64151
0.785646
-1.10806
-3.61757
-0.845073
-2.51132
-0.526289
-0.759939
-0.0242204
-0.0922228
0.876379
-0.168863
2.38783
-0.0232614
-2.19571
3.09588
-1.4216
-3.48289
2.29173
-1.24627
1.04461
-0.893472
-0.382676
-0.142201
0.491685
0.03319
1.85633
1.00647
-0.545497
2.69491
-2.52486
-0.618659
-1.30348
-1.7036
-3.64045
3.39785
-2.41387
2.65643
0.113085
0.0436196
-0.113489
-0.0230774
0.0356811
0.0668307
-0.0794345
-0.0157429
0.0456824
0.0522788
-0.0454828
-0.0257529
0.037227
3.0313
-1.56902
-4.73446
-0.0154812
-0.0581897
0.0837094
-0.0100387
-0.601668
0.882875
-0.23708
-0.0441285
3.06661
0.0690192
0.0187253
0.0253405
0.557118
-1.41815
-0.747187
0.0413287
-0.0430666
0.0440722
-0.0423344
1.44147
-2.73714
2.68269
-1.38703
1.57908
-1.34353
-2.75264
1.87821
-1.60879
-0.47321
-0.0296916
-0.0987674
0.105627
0.176825
-0.103378
-0.179076
0.766001
1.91696
-2.91523
0.536578
-1.2552
0.0388686
0.0111006
-0.0730467
0.0815469
-0.0126954
0.00444975
-0.0733013
-0.839721
0.214524
1.34485
-0.719657
1.65671
-2.50418
-1.90518
0.178336
-0.49292
1.50576
-0.515287
-0.922449
0.654585
0.783148
-3.10329
1.37686
-1.18881
-1.50804
0.994296
1.36536
-1.50653
1.45351
0.89424
1.38055
-1.27923
0.0770201
3.03975
-2.8418
0.66225
-0.860211
1.69725
-1.55264
-0.0523297
-0.0922829
0.0574346
0.110017
-0.123832
0.0420617
0.0794905
-0.0858711
3.4564
0.565969
-0.982612
-0.722567
0.534329
1.35376
-1.16553
1.63325
-1.45802
-0.545988
0.37075
2.32578
-2.12232
-0.372328
1.06126
-0.651356
0.161613
-0.571526
1.79056
-0.494455
0.337145
2.56908
0.142381
-0.385683
3.15538
-0.452347
1.83953
-0.159133
1.2901
-0.520269
0.291431
1.96426
-0.389618
0.215917
-0.878414
-0.985979
1.03009
2.62574
-0.500457
1.00619
-0.425541
-1.07358
0.876473
0.000670695
0.00572941
-2.34768
2.58873
-0.6271
0.386043
0.924902
-0.570068
2.78105
-2.6747
0.665778
-0.772142
0.366407
-0.344375
0.186315
0.579852
2.99034
-0.789162
-0.0991658
1.96772
-0.232026
0.597267
-0.744156
-0.0357684
4.59138
-1.09922
1.40222
-0.0810813
0.0594075
0.303626
-2.32318
-0.505308
-2.47406
-0.755301
-1.45026
-0.0687955
-0.0335838
-0.0684914
0.0204492
0.278626
-1.59622
-2.35334
-0.60251
2.45722
0.73401
1.49419
-1.99126
-0.532656
2.15158
-2.59255
-0.427842
2.41788
1.45914
1.47912
-0.481041
0.679546
-0.398182
-0.796652
1.62636
-0.626627
-0.981667
0.758403
1.17625
-0.952998
-1.88572
1.99259
0.658876
-0.765757
-0.041585
0.104888
0.00472867
-0.0680314
-0.593911
0.813672
0.728512
-0.862642
3.29529
-2.66539
-0.043246
0.0405675
-0.0101501
0.0128286
0.744056
-0.912054
-1.77738
-0.778843
-2.09328
-1.13073
0.0771827
-0.0173557
0.0743322
0.0245704
-0.0694597
0.128681
0.104672
-0.163893
-0.827021
0.918462
-0.969859
-0.493863
2.78421
-1.79386
-2.15071
-0.225888
0.00324958
-0.137558
-2.5442
3.47568
0.048362
-0.157761
-0.363812
-0.562246
1.73159
-3.39192
2.22258
2.81439
1.07518
-1.06533
0.437297
-0.44716
0.901487
-0.970109
0.340026
-2.53902
-0.514575
0.858453
-0.654954
2.26311
0.950263
-3.77561
-0.373034
0.0732393
-0.0828818
-1.20371
-3.8482
1.85789
-1.67071
2.7097
1.28501
3.27432
1.90033
-0.109191
0.0159945
0.235403
-0.142206
2.19609
0.548161
-0.751681
0.988715
-1.53309
0.677864
1.67895
-0.823734
4.28713
1.07736
-2.01369
-3.35081
-0.990925
0.0635073
-2.31867
2.52892
3.2227
-3.14686
-0.11161
0.0839074
1.34077
2.41663
2.33779
-2.1196
1.68635
-1.86405
-2.74171
-0.344328
2.6582
-2.53571
1.67909
-1.09227
1.94889
-2.81353
-3.31555
0.014798
-2.16372
0.306686
-0.486515
-0.659893
0.0119887
-0.00599365
-0.00125601
-0.00473912
-0.048496
0.698135
2.95378
-2.87284
0.869324
-1.35508
-0.859148
-0.787049
-0.498974
0.437334
-0.261349
0.322987
-2.14345
-0.405621
-0.0867842
0.126796
0.0190346
-3.47404
-0.845819
-1.91208
0.978663
0.0940415
-0.0666072
-0.687616
-1.0682
2.06416
-2.50401
1.73925
2.24868
2.4914
2.30897
-1.75561
0.131117
0.0602908
-0.133973
-0.0524464
-0.00815532
1.07031
-0.954174
0.475924
-0.753914
1.86244
-2.16465
-0.697008
0.837016
-0.919302
-0.766502
-0.0995125
1.73666
1.17042
0.100652
0.0397309
-0.153154
-2.26971
1.95843
0.15199
-0.993101
1.13707
-1.56837
2.20827
-0.361283
-0.551416
0.0232185
0.0911802
-0.0730702
2.92522
-0.231786
0.0703149
-0.211564
2.03273
1.04762
2.98644
-0.000598799
0.0229938
-0.49424
1.00032
-0.13776
1.41003
0.131474
-0.108058
-0.15085
0.127433
-0.0521452
0.0491082
0.0361114
0.0602463
-0.0945726
-0.052458
0.567313
-0.457855
0.327874
0.305421
-0.0455955
-0.211464
0.602547
0.434959
-1.08601
-0.0286986
-0.0769659
0.130396
-0.0247315
1.91596
0.0512719
-0.0559508
0.00467888
-0.730613
-0.760218
2.28694
-3.18741
0.722548
0.789109
0.286815
-0.312471
-0.235694
-1.90724
-0.000873374
0.871647
-3.64249
-0.0348586
0.0437117
0.0112634
-0.0201165
-0.175279
-3.65626
-0.0795414
-0.0182152
0.0690578
-2.7093
-0.410367
-2.02355
3.78132
-2.00615
-0.0304046
-0.116178
0.0696168
0.186192
-0.254472
0.199753
-0.0252711
-0.0571064
0.0368948
-0.635662
1.70017
-0.850995
1.59145
0.965549
-0.694561
0.016976
-0.0302849
0.0133089
-1.20895
-0.893317
0.0300153
-0.0437767
0.0137614
1.32409
-2.8808
0.893139
0.896002
-0.401983
0.761488
0.0257306
0.00428473
0.322152
-0.154785
-0.157633
0.270603
0.121788
-0.20215
1.54339
-0.40812
-0.757147
2.88929
0.14681
-0.0621352
0.0464423
-0.0710866
0.0964377
-0.742458
0.991763
-1.82488
-0.382891
1.40882
-0.257657
2.79835
0.0441251
0.00498302
0.181227
-2.25858
0.997565
-0.580688
-1.73759
1.18011
0.502359
0.19699
-1.66152
1.48835
-0.146756
-0.0376357
0.0763339
3.59002
-0.0716938
0.0399245
0.0945217
-0.0923845
-0.123732
0.181024
-0.799031
0.150923
-0.000908398
-0.0944724
0.0318563
0.0351631
-0.0670195
-0.188387
-2.07171
3.11645
-0.306356
0.346649
0.135501
-1.49738
0.00881519
0.00816081
-0.887982
-3.16486
0.354615
0.037726
0.101325
-0.0991268
-0.313292
-0.133695
0.00511168
-0.925698
-0.336047
-2.73815
-1.45349
-0.0119205
0.124673
0.132391
-0.191261
-0.819751
-0.0225731
0.0052441
-0.0257377
0.0623297
0.142043
-0.144082
-0.221681
-1.93375
-2.36967
0.0403106
0.00381441
0.0829947
-1.50382
0.0115147
1.1141
0.0313481
-0.00204806
0.0593449
0.0837412
-0.10536
0.390053
0.0981311
0.0296502
0.0379532
-0.0494629
-0.016485
0.0119307
-0.137654
0.205531
-0.117776
-0.0129891
0.0158106
0.0408596
-0.000549051
-0.00342169
0.00216566
0.0859334
0.0168517
0.00140898
-0.00699732
-0.153886
1.4975
-1.07016
1.02617
0.0329739
-0.111283
-0.00456883
0.134224
-0.296921
-0.455653
0.762595
0.408741
-1.01564
-0.922511
-0.023749
0.0334733
-0.039899
0.0174925
-0.0599492
-0.0206902
0.02101
-0.00736129
0.000424246
0.0404353
0.00256386
-0.0475725
1.63648
-0.00958796
0.03228
-1.42714
0.316923
-1.45916
-0.533079
-0.0494569
0.0046849
-0.00925375
-0.0293794
0.0135154
-0.03995
0.0485506
-0.00784476
0.438454
-0.602482
-0.838564
0.544503
-0.0201434
-1.08936
-0.310616
-0.0730139
-0.0343433
-1.12747
-0.903596
-0.0148421
-0.0487915
0.0221299
0.0973209
-0.322427
0.0346144
0.0177506
-0.0349586
1.36025
-0.0135071
0.0284675
-0.012089
-0.160329
2.71277
-0.19069
-0.229964
-0.578978
-0.174749
-0.696305
-0.00492429
0.130946
-0.126022
-0.00936047
0.138122
-0.133686
-0.0140919
0.150509
-0.145777
-0.0192907
0.160562
-0.155363
-0.0249291
0.170011
-0.164372
-0.0311904
0.178383
-0.172122
-0.0379859
0.186491
-0.179696
-0.0454049
0.194245
-0.186826
0.201959
-0.194421
-0.0529431
-0.00401857
0.134965
-0.00815435
0.142258
-0.0123557
0.15471
-0.0169636
0.16517
-0.0219245
0.174972
-0.027414
0.183873
-0.0333489
0.192426
-0.0397542
0.20065
0.208722
-0.0465169
-0.00351669
0.138482
-0.00714876
0.14589
-0.0108391
0.158401
-0.0148427
0.169174
-0.0191536
0.179283
-0.0238781
0.188597
-0.0289707
0.197519
-0.0344203
0.2061
0.214475
-0.0401739
-0.00318634
0.141668
-0.00629399
0.148998
-0.00943741
0.161544
-0.0128181
0.172554
-0.0164717
0.182936
-0.020464
0.19259
-0.0247635
0.201818
-0.0293619
0.210699
0.219365
-0.0342512
-0.00289055
0.144559
-0.00545581
0.151563
-0.00802746
0.164116
-0.0107855
0.175313
-0.0137744
0.185925
-0.0170474
0.195863
-0.0205966
0.205368
-0.024419
0.214521
0.223453
-0.0285072
-0.0024641
0.147023
-0.00451055
0.153609
-0.00652188
0.166127
-0.00866065
0.177451
-0.0109862
0.188251
-0.0135487
0.198425
-0.0163411
0.20816
-0.0193685
0.217549
0.226725
-0.0226406
-0.00174642
0.148769
-0.00335956
0.155223
-0.00484962
0.167617
-0.00640046
0.179002
-0.00807009
0.18992
-0.00991661
0.200272
-0.0119595
0.210203
-0.0141997
0.219789
0.229183
-0.0166576
-0.000855115
0.149624
-0.00207167
0.156439
-0.00304866
0.168594
-0.00400202
0.179956
-0.00501785
0.190936
-0.00616347
0.201418
-0.0074593
0.211499
-0.0089238
0.221253
0.230781
-0.0105214
-6.82498e-05
0.149693
-0.000794117
0.157165
-0.00119248
0.168993
-0.00152402
0.180287
-0.00187625
0.191288
-0.00231385
0.201855
-0.0028811
0.212066
-0.00358737
0.22196
0.231657
-0.00446404
0.000560722
0.149132
0.000416444
0.157309
0.000674894
0.168734
0.00100842
0.179954
0.00133656
0.19096
0.0015801
0.201612
0.00171081
0.211935
0.00169556
0.221975
0.231823
0.00153022
0.00107039
0.148061
0.00161439
0.156765
0.00259158
0.167757
0.00359714
0.178948
0.0045875
0.18997
0.00548659
0.200712
0.00627796
0.211144
0.00692053
0.221332
0.231361
0.00738192
0.00161677
0.146445
0.0029729
0.155409
0.00464407
0.166086
0.00627491
0.177317
0.00785773
0.188387
0.00937109
0.199199
0.0107772
0.209738
0.0120677
0.220042
0.230299
0.01313
0.00258351
0.143861
0.00472744
0.153265
0.00691574
0.163898
0.00903182
0.175201
0.0111138
0.186305
0.0131403
0.197172
0.0150948
0.207783
0.0169414
0.218195
0.228571
0.018669
0.00387627
0.139985
0.00667767
0.150464
0.00925872
0.161316
0.011759
0.172701
0.0142424
0.183822
0.0166907
0.194724
0.0190935
0.20538
0.021413
0.215875
0.226351
0.0236337
0.00502924
0.134956
0.00844705
0.147046
0.011408
0.158355
0.0142434
0.169865
0.0170667
0.180998
0.0198871
0.191904
0.0226824
0.202585
0.025408
0.21315
0.223711
0.0280481
0.00574197
0.129213
0.00971911
0.143069
0.0130632
0.155011
0.0162471
0.166682
0.0194121
0.177833
0.0225814
0.188734
0.0257398
0.199427
0.0288504
0.210039
0.220666
0.031895
0.00561421
0.123599
0.0101794
0.138503
0.013967
0.151224
0.0175708
0.163078
0.0211243
0.17428
0.0246684
0.18519
0.0281851
0.19591
0.0316622
0.206562
0.217293
0.0350349
0.00467608
0.118923
0.00968799
0.133492
0.0140316
0.14688
0.0181443
0.158965
0.0221484
0.170275
0.0261015
0.181237
0.0300098
0.192001
0.0338609
0.202711
0.213533
0.0376213
0.00370182
0.115221
0.00878098
0.128412
0.0135478
0.142113
0.0181361
0.154377
0.0225954
0.165816
0.0269792
0.176853
0.0313023
0.187678
0.0355764
0.198437
0.209299
0.0398104
0.00310336
0.112118
0.0079753
0.12354
0.0129183
0.13717
0.017837
0.149458
0.0226699
0.160983
0.0274385
0.172084
0.0321481
0.182969
0.0367967
0.193788
0.20472
0.0413758
0.00283922
0.109278
0.00745027
0.118929
0.0123986
0.132222
0.0174947
0.144362
0.0226002
0.155877
0.0276945
0.16699
0.0327671
0.177896
0.0377982
0.188757
0.199771
0.0427465
0.00282636
0.106452
0.00724587
0.11451
0.0121284
0.127339
0.0172843
0.139206
0.0225695
0.150592
0.0279295
0.16163
0.0333313
0.172494
0.0387309
0.183357
0.194376
0.0441258
0.00316742
0.103285
0.00741811
0.110259
0.0121837
0.122574
0.0173142
0.134075
0.0227147
0.145191
0.028306
0.156038
0.0340446
0.166755
0.0398197
0.177582
0.188689
0.0455073
0.0039967
0.0992878
0.00797519
0.10628
0.0125494
0.117999
0.017618
0.129006
0.0231133
0.139696
0.0289217
0.15023
0.0350319
0.160645
0.0412013
0.171413
0.183274
0.046616
0.00481534
0.00843973
0.0129502
0.0181243
0.0238468
0.0299943
0.0367533
0.044273
0.052798
-0.116131
-0.000815501
0.116946
-0.115149
-0.000981536
-0.11396
-0.00118876
-0.112521
-0.00143938
-0.110795
-0.00172644
-0.108741
-0.00205394
-0.106318
-0.00242221
-0.103492
-0.00282656
-0.100221
-0.00327075
-0.0964782
-0.00374295
-0.0922366
-0.00424162
-0.0874803
-0.00475633
-0.0822172
-0.00526309
-0.0764884
-0.00572884
-0.0703673
-0.00612104
-0.0639287
-0.0064386
-0.0572515
-0.00667717
-0.0504147
-0.00683682
-0.0435029
-0.00691177
-0.0366016
-0.00690136
-0.0298008
-0.00680066
-0.0232019
-0.00659891
-0.0169196
-0.00628221
-0.0110619
-0.00585776
-0.00557492
-0.00548686
-0.000274904
-0.0053
0.00501621
-0.00529101
0.0104977
-0.00548145
0.0162556
-0.00575784
0.0221973
-0.00594162
0.0282052
-0.0060078
0.0341995
-0.00599424
0.0401365
-0.00593691
0.0459771
-0.00584051
0.0516816
-0.0057044
0.0572148
-0.00553316
0.0625414
-0.00532643
0.0676246
-0.00508322
0.0724337
-0.00480893
0.076939
-0.00450531
0.0811215
-0.00418235
0.0849918
-0.00387027
0.0885892
-0.00359722
0.091962
-0.00337283
0.0951509
-0.00318868
0.0981952
-0.00304432
0.101119
-0.00292406
0.10394
-0.00282091
0.106656
-0.00271572
0.109257
-0.00260093
0.111732
-0.00247467
0.114062
-0.00233025
0.116241
-0.00217838
0.118258
-0.00201754
0.120115
-0.00185683
0.121815
-0.00170013
0.123361
-0.00154558
0.124763
-0.0014023
-0.00125879
-0.111129
-0.00250036
0.112814
-0.109281
-0.00282913
-0.107261
-0.00320894
-0.105054
-0.00364647
-0.102649
-0.00413177
-0.100025
-0.00467736
-0.0971736
-0.00527382
-0.0940763
-0.00592389
-0.0907246
-0.0066225
-0.0871096
-0.00735799
-0.0832276
-0.0081236
-0.0790858
-0.00889824
-0.0746975
-0.00965138
-0.0700799
-0.0103465
-0.0652331
-0.0109678
-0.0601563
-0.0115155
-0.0548546
-0.0119788
-0.049344
-0.0123474
-0.043643
-0.0126128
-0.037777
-0.0127674
-0.0317681
-0.0128095
-0.0256231
-0.0127439
-0.0193188
-0.0125865
-0.01279
-0.0123865
-0.00605217
-0.0122247
0.000782441
-0.0121346
0.00761119
-0.0121197
0.0143085
-0.0121788
0.0208383
-0.0122875
0.0272589
-0.0123623
0.0336093
-0.0123581
0.039886
-0.0122709
0.0460612
-0.0121121
0.0521109
-0.0118902
0.0580094
-0.0116028
0.0637358
-0.0112595
0.0692717
-0.0108622
0.0746098
-0.0104213
0.0797432
-0.00994223
0.0846748
-0.00943684
0.0894114
-0.00891889
0.0939439
-0.00840276
0.098255
-0.00790823
0.10232
-0.00743739
0.10612
-0.00698907
0.109642
-0.0065665
0.11288
-0.00616173
0.115825
-0.00576608
0.118485
-0.0053755
0.120868
-0.00498392
0.122994
-0.00460024
0.124886
-0.00422238
0.126569
-0.00386143
0.128075
-0.00352377
0.129426
-0.00320727
0.130648
-0.00292221
0.131754
-0.00265198
0.132761
-0.00240879
-0.00218385
-0.118398
-0.00445257
0.12035
-0.116264
-0.00496264
-0.113939
-0.00553379
-0.111418
-0.00616749
-0.108683
-0.00686731
-0.105727
-0.0076335
-0.102542
-0.00845814
-0.09913
-0.0093363
-0.0954878
-0.0102648
-0.0916186
-0.0112272
-0.0875303
-0.0122119
-0.0832331
-0.0131955
-0.0787257
-0.0141588
-0.0739902
-0.015082
-0.0690066
-0.0159514
-0.0637714
-0.0167508
-0.0582818
-0.0174683
-0.0525467
-0.0180826
-0.0465731
-0.0185863
-0.0403697
-0.0189709
-0.0339408
-0.0192384
-0.0272908
-0.019394
-0.0204204
-0.0194568
-0.0133485
-0.0194584
-0.00613742
-0.0194357
0.00114719
-0.0194192
0.00844695
-0.0194194
0.0157019
-0.0194338
0.0228535
-0.019439
0.0298886
-0.0193975
0.0368108
-0.0192803
0.0436149
-0.019075
0.0502843
-0.0187815
0.0567954
-0.0184012
0.0631332
-0.0179406
0.0692808
-0.0174071
0.0752248
-0.0168062
0.080957
-0.0161534
0.0864721
-0.0154573
0.0917618
-0.0147265
0.0968226
-0.0139796
0.101645
-0.0132247
0.106212
-0.0124759
0.110508
-0.0117333
0.114527
-0.011008
0.118254
-0.0102935
0.121688
-0.00959575
0.124835
-0.0089132
0.12771
-0.00824991
0.130332
-0.00760665
0.132725
-0.00699313
0.134913
-0.00640991
0.136918
-0.00586673
0.138752
-0.0053578
0.140429
-0.00488413
0.141956
-0.00444946
0.143353
-0.00404886
0.144623
-0.00367872
-0.00333841
-0.124265
-0.00649702
0.126309
-0.122038
-0.00718989
-0.119609
-0.00796284
-0.116967
-0.00880892
-0.114107
-0.00972774
-0.111021
-0.0107198
-0.107705
-0.0117739
-0.104153
-0.0128885
-0.100369
-0.0140482
-0.0963553
-0.0152413
-0.0921129
-0.0164543
-0.0876341
-0.0176743
-0.0829167
-0.0188762
-0.0779486
-0.0200502
-0.0727299
-0.02117
-0.0672543
-0.0222264
-0.0615239
-0.0231987
-0.0555362
-0.0240704
-0.0492894
-0.0248331
-0.0427831
-0.0254773
-0.0360178
-0.0260036
-0.0289976
-0.0264141
-0.0217337
-0.0267208
-0.014254
-0.0269382
-0.00660226
-0.0270874
0.00116385
-0.0271854
0.00897965
-0.0272352
0.0167823
-0.0272364
0.0245198
-0.0271765
0.0321586
-0.0270363
0.0396775
-0.0267991
0.0470585
-0.0264561
0.0542811
-0.026004
0.0613269
-0.0254471
0.0681739
-0.0247876
0.0748081
-0.0240413
0.0812167
-0.0232148
0.0873797
-0.0223165
0.0932867
-0.0213643
0.0989305
-0.0203703
0.104299
-0.0193478
0.109379
-0.0183052
0.11416
-0.0172562
0.118632
-0.0162059
0.122788
-0.0151636
0.126636
-0.0141422
0.13018
-0.0131395
0.13344
-0.0121725
0.136426
-0.0112363
0.139168
-0.0103484
0.141682
-0.00950725
0.143987
-0.0087153
0.146093
-0.00797235
0.14802
-0.00728486
0.14978
-0.00664385
0.151384
-0.00605363
0.152842
-0.0055066
0.154163
-0.00499985
-0.00453892
-0.133661
-0.00867071
0.135835
-0.131278
-0.00957321
-0.128679
-0.0105617
-0.125852
-0.011636
-0.122786
-0.0127933
-0.119477
-0.0140292
-0.115913
-0.0153372
-0.112099
-0.0167027
-0.10803
-0.0181173
-0.103705
-0.0195662
-0.0991251
-0.0210343
-0.0942902
-0.0225092
-0.0891988
-0.0239676
-0.0838523
-0.0253966
-0.078244
-0.0267784
-0.0723745
-0.028096
-0.0662412
-0.029332
-0.0598384
-0.0304732
-0.0531678
-0.0315037
-0.0462254
-0.0324197
-0.0390187
-0.0332104
-0.0315549
-0.033878
-0.0238511
-0.0344246
-0.0159335
-0.0348558
-0.00784277
-0.0351782
0.000370623
-0.0353988
0.00865351
-0.0355181
0.0169518
-0.0355347
0.0252146
-0.0354393
0.0333986
-0.0352204
0.0414676
-0.0348682
0.0493884
-0.0343768
0.0571294
-0.033745
0.0646657
-0.0329834
0.0719751
-0.0320969
0.0790304
-0.0310966
0.0858145
-0.0299989
0.0923141
-0.028816
0.0985148
-0.027565
0.10441
-0.0262652
0.109985
-0.0249234
0.115243
-0.0235629
0.120177
-0.0221902
0.124793
-0.020822
0.129099
-0.0194696
0.133101
-0.0181444
0.13682
-0.0168581
0.140267
-0.0156194
0.143461
-0.0144308
0.146417
-0.0133041
0.14915
-0.0122405
0.151674
-0.0112388
0.154003
-0.0103017
0.156141
-0.00942304
0.158104
-0.00860666
0.159898
-0.00784802
0.161535
-0.00714335
0.163025
-0.00649014
-0.00588588
-0.14197
-0.0109091
0.144208
-0.139523
-0.0120199
-0.136859
-0.0132261
-0.133961
-0.0145344
-0.130814
-0.0159403
-0.127415
-0.0174277
-0.123755
-0.0189974
-0.119827
-0.0206311
-0.115625
-0.0223192
-0.11115
-0.0240412
-0.106397
-0.0257873
-0.101365
-0.0275405
-0.09605
-0.0292829
-0.0904482
-0.0309985
-0.0845591
-0.0326675
-0.0783798
-0.0342753
-0.0719072
-0.0358046
-0.0651453
-0.0372352
-0.0580893
-0.0385597
-0.0507436
-0.0397654
-0.0431109
-0.0408431
-0.0352055
-0.0417835
-0.0270448
-0.0425853
-0.0186583
-0.0432423
-0.0100853
-0.0437512
-0.00137331
-0.0441108
0.00742604
-0.0443175
0.0162605
-0.0443692
0.0250779
-0.0442566
0.0338282
-0.0439707
0.0424664
-0.0435064
0.050946
-0.0428565
0.0592284
-0.0420274
0.0672803
-0.0410354
0.0750678
-0.0398844
0.0825683
-0.0385971
0.0897599
-0.0371905
0.0966176
-0.0356738
0.103134
-0.0340818
0.1093
-0.0324313
0.115118
-0.0307404
0.120582
-0.0290276
0.125705
-0.0273134
0.130493
-0.0256094
0.13496
-0.0239369
0.139121
-0.0223051
0.14299
-0.0207273
0.146585
-0.0192142
0.149926
-0.0177716
0.153026
-0.0164049
0.155904
-0.0151185
0.158569
-0.0139034
0.161032
-0.0127643
0.163304
-0.0116956
0.165397
-0.0106999
0.167315
-0.00976515
0.169067
-0.0088961
0.170669
-0.00809197
-0.00733882
-0.151935
-0.013241
0.154267
-0.149386
-0.0145684
-0.146608
-0.0160042
-0.143588
-0.0175543
-0.140316
-0.0192127
-0.136777
-0.0209665
-0.132965
-0.0228093
-0.128871
-0.0247254
-0.124495
-0.0266949
-0.119826
-0.0287102
-0.114864
-0.0307493
-0.109605
-0.0327999
-0.10404
-0.0348472
-0.098168
-0.0368709
-0.0919836
-0.0388518
-0.0854859
-0.040773
-0.0786677
-0.0426227
-0.0715397
-0.0443632
-0.0640959
-0.0460036
-0.0563434
-0.0475178
-0.0482834
-0.0489031
-0.0399325
-0.0501344
-0.0313111
-0.0512067
-0.0224449
-0.0521085
-0.0133817
-0.0528143
-0.00416614
-0.0533265
0.00514634
-0.05363
0.0145072
-0.0537301
0.0238625
-0.0536119
0.0331566
-0.0532649
0.0423403
-0.0526901
0.0513492
-0.0518654
0.0601371
-0.0508152
0.0686655
-0.0495638
0.0768917
-0.0481106
0.0847962
-0.0465017
0.0923563
-0.0447507
0.0995361
-0.0428536
0.106342
-0.0408878
0.112771
-0.03886
0.118833
-0.036803
0.124533
-0.0347275
0.129887
-0.0326671
0.134905
-0.0306272
0.139608
-0.0286402
0.144009
-0.0267056
0.148122
-0.0248403
0.151958
-0.0230503
0.155536
-0.0213501
0.158873
-0.0197415
0.161975
-0.0182212
0.164866
-0.0167938
0.167545
-0.015444
0.170025
-0.0141756
0.172311
-0.0129858
0.174414
-0.0118679
0.176341
-0.0108231
0.178099
-0.00984956
-0.00893595
-0.161973
-0.0156305
0.164362
-0.159379
-0.0171623
-0.156562
-0.0188215
-0.153495
-0.0206205
-0.150173
-0.0225347
-0.146575
-0.0245647
-0.142702
-0.0266828
-0.138532
-0.0288954
-0.134052
-0.0311744
-0.129279
-0.033484
-0.124188
-0.0358397
-0.118772
-0.038216
-0.113026
-0.040593
-0.106937
-0.04296
-0.100503
-0.0452862
-0.0937126
-0.0475633
-0.0865649
-0.0497704
-0.0790911
-0.051837
-0.0712816
-0.0538131
-0.0631361
-0.0556633
-0.05465
-0.0573892
-0.0458514
-0.058933
-0.0367654
-0.0602927
-0.0273918
-0.0614821
-0.0178215
-0.0623846
-0.00808541
-0.0630626
0.00174002
-0.0634554
0.0116285
-0.0636186
0.0215159
-0.0634993
0.0313436
-0.0630925
0.0410723
-0.0624188
0.0505945
-0.0613876
0.0598634
-0.0600842
0.0688653
-0.0585657
0.0775069
-0.0567522
0.0858094
-0.0548042
0.0937672
-0.0527085
0.101271
-0.0503578
0.10838
-0.0479966
0.115105
-0.0455854
0.121458
-0.0431552
0.12746
-0.04073
0.133105
-0.0383125
0.138425
-0.0359465
0.143461
-0.0336769
0.148181
-0.0314255
0.152627
-0.0292865
0.156785
-0.027208
0.160647
-0.0252125
0.164246
-0.0233404
0.167602
-0.0215773
0.17073
-0.0199212
0.173634
-0.0183484
0.176324
-0.016865
0.178806
-0.0154687
0.181091
-0.0141525
0.183178
-0.0129095
0.185085
-0.011757
-0.0106771
-0.173668
0.176064
-0.0180269
-0.171022
-0.0198079
-0.168136
-0.0217075
-0.164983
-0.0237739
-0.161568
-0.0259496
-0.157863
-0.0282698
-0.153854
-0.0306917
-0.149571
-0.0331782
-0.144987
-0.0357586
-0.140008
-0.0384631
-0.134756
-0.041092
-0.129152
-0.0438194
-0.123151
-0.0465946
-0.116835
-0.0492758
-0.110101
-0.0520198
-0.103071
-0.0545937
-0.0956441
-0.0571971
-0.0877911
-0.05969
-0.0795327
-0.0620715
-0.0709623
-0.0642337
-0.0620352
-0.0663163
-0.0528417
-0.0681266
-0.0433282
-0.0698062
-0.03345
-0.0713603
-0.0233746
-0.07246
-0.0131343
-0.0733028
-0.00284559
-0.0737442
0.00756057
-0.0740247
0.0179831
-0.073922
0.0282516
-0.073361
0.0384825
-0.0726498
0.0484674
-0.0713725
0.0581396
-0.0697564
0.0675772
-0.0680033
0.0766265
-0.0658016
0.0852906
-0.0634683
0.0934838
-0.0609017
0.101217
-0.0580911
0.108687
-0.0554663
0.115725
-0.052624
0.122406
-0.0498356
0.1288
-0.047124
0.134847
-0.0443602
0.140607
-0.0417065
0.14608
-0.0391501
0.151253
-0.0365979
0.156142
-0.0341754
0.160696
-0.0317625
0.165063
-0.0295793
0.169149
-0.0274264
0.172945
-0.0253735
0.176463
-0.0234388
0.179707
-0.0215931
0.182755
-0.0199127
0.185566
-0.0182798
0.188138
-0.016725
0.190474
-0.0152446
0.192541
-0.0138249
-0.0125564
-0.0760089
0.00898939
-0.0838193
0.00781028
-0.0905632
0.00674386
-0.0965308
0.00596749
-0.102179
0.00564798
-0.107688
0.00550948
-0.113109
0.00542059
-0.11865
0.00554083
-0.12435
0.0056999
-0.129636
0.00528591
-0.133745
0.00410957
-0.136267
0.00252133
-0.137203
0.000936092
-0.136982
-0.000220651
-0.136275
-0.0007075
-0.135486
-0.000788923
-0.134696
-0.000790446
-0.133827
-0.000868133
-0.132714
-0.00111312
-0.131074
-0.00164031
-0.128674
-0.00239985
-0.125656
-0.00301785
-0.122462
-0.00319491
-0.119612
-0.00285006
-0.00266541
-0.0806949
0.0166376
-0.0882835
0.0153988
-0.0955714
0.0140317
-0.102551
0.0129469
-0.109183
0.0122802
-0.115514
0.0118401
-0.121595
0.0115019
-0.127272
0.0112181
-0.132263
0.0106906
-0.136438
0.00946028
-0.139863
0.00753517
-0.142566
0.00522391
-0.144518
0.00288825
-0.145636
0.00089751
-0.145867
-0.000476628
-0.145311
-0.00134486
-0.144113
-0.00198815
-0.142352
-0.00262974
-0.140067
-0.00339808
-0.137321
-0.00438587
-0.134173
-0.00554837
-0.130488
-0.0067025
-0.125967
-0.0077163
-0.120154
-0.00866263
-0.0100062
-0.0882274
0.0254306
-0.0966492
0.0238206
-0.104735
0.0221174
-0.112426
0.0206384
-0.119611
0.0194643
-0.12626
0.0184895
-0.132338
0.0175794
-0.137717
0.0165974
-0.14231
0.0152837
-0.14623
0.0133806
-0.149598
0.0109025
-0.152453
0.00807897
-0.154784
0.00521983
-0.156493
0.00260615
-0.157407
0.000437069
-0.15743
-0.00132148
-0.156583
-0.00283482
-0.15492
-0.00429286
-0.152493
-0.00582508
-0.149358
-0.00752167
-0.145533
-0.00937317
-0.140919
-0.0113159
-0.135325
-0.0133108
-0.128509
-0.0154786
-0.0181653
-0.0955562
0.0351156
-0.1047
0.0329643
-0.113405
0.0308219
-0.121623
0.0288564
-0.12926
0.0271012
-0.136252
0.0254823
-0.142546
0.0238731
-0.148078
0.022129
-0.152843
0.0200492
-0.156946
0.0174827
-0.160496
0.0144532
-0.163542
0.0111251
-0.166049
0.00772637
-0.167922
0.00447932
-0.169001
0.00151562
-0.169171
-0.00115137
-0.168378
-0.00362765
-0.166627
-0.00604419
-0.16393
-0.00852175
-0.160322
-0.0111292
-0.155782
-0.0139137
-0.150224
-0.016874
-0.143497
-0.0200372
-0.135485
-0.0234913
-0.0273406
-0.10279
0.0455214
-0.112647
0.0428211
-0.121955
0.0401297
-0.130681
0.0375821
-0.13875
0.0351704
-0.146112
0.0328437
-0.152723
0.0304843
-0.158558
0.0279643
-0.163642
0.025133
-0.168051
0.0218914
-0.171865
0.0182676
-0.175117
0.0143767
-0.177761
0.0103704
-0.179707
0.00642504
-0.180838
0.00264668
-0.18103
-0.000958538
-0.180213
-0.00444522
-0.178363
-0.00789385
-0.175473
-0.0114122
-0.171542
-0.0150605
-0.166562
-0.0188938
-0.160506
-0.02293
-0.153349
-0.0271941
-0.14511
-0.0317299
-0.0366163
-0.110027
0.0564218
-0.120518
0.0533115
-0.130398
0.0500099
-0.13963
0.0468143
-0.148152
0.0436924
-0.155931
0.0406222
-0.162928
0.0374819
-0.169143
0.0341786
-0.174606
0.0305967
-0.179365
0.0266495
-0.183477
0.02238
-0.186946
0.017846
-0.189731
0.0131556
-0.191751
0.00844464
-0.192884
0.00377996
-0.193042
-0.000800892
-0.192152
-0.00533502
-0.190155
-0.00989105
-0.187034
-0.0145334
-0.182763
-0.0193308
-0.177341
-0.0243164
-0.170757
-0.0295144
-0.163011
-0.0349394
-0.154129
-0.0406126
-0.0465366
-0.117087
0.0681483
-0.128299
0.0645235
-0.138778
0.0604888
-0.148539
0.056576
-0.157544
0.0526972
-0.165779
0.0488566
-0.173198
0.0449015
-0.179825
0.0408052
-0.185683
0.0364546
-0.190804
0.0317706
-0.195228
0.0268034
-0.198945
0.0215633
-0.201893
0.0161031
-0.203989
0.0105407
-0.205149
0.00493999
-0.205277
-0.000672143
-0.204301
-0.00631113
-0.20217
-0.0120227
-0.198845
-0.017858
-0.194321
-0.0238552
-0.188581
-0.0300567
-0.181653
-0.036442
-0.173571
-0.0430213
-0.164408
-0.0497759
-0.056678
-0.124096
0.0809612
-0.136092
0.0765194
-0.147153
0.0715492
-0.157455
0.0668783
-0.166958
0.0622006
-0.175677
0.0575751
-0.18354
0.0527645
-0.190584
0.0478497
-0.19686
0.0427299
-0.202343
0.0372543
-0.207077
0.0315375
-0.211066
0.0255519
-0.214192
0.0192287
-0.216397
0.0127463
-0.217593
0.00613584
-0.217695
-0.000570389
-0.216641
-0.00736484
-0.214376
-0.0142878
-0.210864
-0.0213701
-0.206108
-0.0286116
-0.200102
-0.0360627
-0.192875
-0.0436685
-0.18446
-0.0514366
-0.174923
-0.0593125
-0.0672393
-0.13159
0.0947749
-0.144106
0.0890352
-0.155571
0.0830141
-0.166374
0.0776813
-0.176382
0.072209
-0.185636
0.0668284
-0.193958
0.0610873
-0.201437
0.0553279
-0.20813
0.0494228
-0.213998
0.0431221
-0.219024
0.0365634
-0.223256
0.0297848
-0.226608
0.0225804
-0.228939
0.0150766
-0.230175
0.0073719
-0.23027
-0.000475419
-0.229138
-0.00849675
-0.226769
-0.0166562
-0.223073
-0.0250666
-0.218059
-0.0336255
-0.211846
-0.042276
-0.204423
-0.0510911
-0.195829
-0.0600313
-0.186317
-0.0688241
-0.0774922
1.19733
0.227457
0.217392
-0.444829
-0.696917
0.711838
-0.0149175
0.296027
-0.382512
0.0864847
0.362858
-0.41767
0.0548121
0.0601813
-0.514437
0.454256
-0.409129
0.715254
-0.306126
0.686602
-0.517566
-0.169042
-0.0492234
-0.208403
0.257627
4.46074
-2.95388
-1.50686
-0.778372
1.62468
-0.846308
-0.937946
0.296286
0.641656
0.831108
-1.54894
0.717829
-0.516583
-0.412176
0.928759
0.130308
-0.132855
0.00254677
2.01842
-1.82792
-0.190503
-0.646288
-0.0506284
0.139772
-0.0231988
-0.116574
0.251734
0.172084
0.198694
0.0995942
-0.298289
-0.36368
0.219293
0.144387
2.34795
0.802284
-3.15022
-0.450692
0.82512
-0.374428
1.15487
-0.896256
-0.258613
-0.86797
0.242286
0.625684
0.993105
0.161764
-1.09898
0.523889
0.575085
-0.768406
0.125677
0.64273
2.50559
-1.58851
-0.917081
-0.0354108
-0.152021
0.187432
0.312204
0.410624
-0.722829
0.783125
-1.93387
1.15079
0.614626
0.886
-1.50063
1.35191
-2.85484
1.50292
-0.302615
-0.0714375
0.374052
0.531258
0.977114
-1.50837
-0.900503
0.383921
-2.40594
0.697708
1.70823