/*--------------------------------*- C++ -*----------------------------------*\
  =========                 |
  \\      /  F ield         | OpenFOAM: The Open Source CFD Toolbox
   \\    /   O peration     | Website:  https://openfoam.org
    \\  /    A nd           | Version:  10
     \\/     M anipulation  |
\*---------------------------------------------------------------------------*/
FoamFile
{
    format      ascii;
    class       volVectorField;
    location    "550";
    object      U;
}
// * * * * * * * * * * * * * * * * * * * * * * * * * * * * * * * * * * * * * //

dimensions      [0 1 -1 0 0 0 0];

internalField   nonuniform List<vector> 
10435
(
(1.58593 0.123804 -8.00189e-23)
(1.58194 0.39515 7.42506e-22)
(3.24036 -0.094836 -2.02281e-21)
(1.98166 -0.0248621 1.95718e-21)
(2.26308 0.180857 -3.08215e-21)
(2.7961 0.29786 1.24427e-20)
(3.25304 -0.124096 -8.04676e-21)
(3.27304 -0.155816 6.88964e-21)
(3.22183 -0.230761 3.64443e-20)
(3.08063 0.161835 -5.27181e-21)
(1.7473 0.323334 -3.16495e-22)
(2.49353 -0.227919 9.4009e-21)
(3.20931 -0.0972465 8.46134e-21)
(0.918093 0.258853 3.66382e-21)
(1.01874 0.283997 4.03544e-21)
(3.23356 -0.129145 -9.13665e-22)
(0.821716 0.222439 -1.26779e-21)
(3.1673 0.0646861 3.16024e-20)
(3.16628 -0.291344 -1.57227e-20)
(1.66385 0.0785125 2.68605e-22)
(3.26065 -0.14642 4.44403e-21)
(1.9811 -0.126208 -2.63311e-21)
(3.21602 -0.0979582 2.97708e-20)
(2.85245 -0.538949 -1.06883e-20)
(3.10867 0.0866191 6.53763e-21)
(0.216277 0.340225 2.9032e-22)
(0.0549061 0.0300766 8.6735e-22)
(3.23392 -0.110301 4.4085e-21)
(0.249035 -0.105563 -1.61523e-22)
(3.12775 0.139231 3.26068e-20)
(3.02782 -0.0301561 1.17049e-20)
(1.83563 0.293375 -1.404e-22)
(3.27011 -0.166036 -1.67097e-20)
(0.491745 -0.109447 -1.15163e-21)
(3.17923 -0.253231 8.75783e-21)
(1.33888 0.516517 -1.14962e-21)
(3.14792 -0.217833 1.36974e-20)
(0.160144 0.197493 -3.29535e-21)
(0.354974 0.336574 9.2889e-23)
(3.08439 -0.407902 4.73776e-21)
(3.04509 0.272706 -3.33251e-20)
(3.24494 -0.108638 -6.95883e-21)
(0.616083 0.406814 4.81695e-21)
(1.81047 0.0709227 -1.72898e-21)
(3.12323 -0.15795 -2.13994e-20)
(2.97008 -0.50276 2.14456e-20)
(2.90947 0.303816 -1.70628e-20)
(0.442947 0.337908 1.7072e-20)
(3.2315 -0.180609 1.2748e-20)
(1.96433 -0.238124 -2.0437e-21)
(3.26076 -0.16321 -1.33283e-21)
(2.82358 0.111502 7.65244e-20)
(0.399892 0.348648 5.20174e-22)
(0.335958 -0.178973 -1.23705e-22)
(0.310166 0.341418 -1.69141e-22)
(0.198321 -0.126951 3.94308e-22)
(3.06356 -0.312591 -4.01279e-20)
(0.167529 0.123513 -1.43347e-21)
(0.68172 0.0524387 1.27726e-21)
(3.09362 -0.360529 2.65361e-20)
(0.354309 0.354543 -2.90999e-22)
(1.49963 0.436059 -1.27226e-21)
(0.189656 0.0272702 1.67149e-21)
(2.65467 0.0893952 -4.91839e-21)
(3.17374 -0.11248 -4.20989e-20)
(3.21686 -0.056448 2.03165e-20)
(0.621219 -0.010226 -2.13774e-21)
(0.352761 0.129538 -6.09189e-21)
(3.2718 -0.144665 -8.43067e-21)
(2.70196 -0.568858 1.19983e-21)
(0.28835 -0.197709 3.56517e-22)
(0.173647 0.291276 -1.15514e-22)
(0.705277 0.518787 -9.01753e-21)
(3.21162 -0.0547583 -2.73313e-20)
(1.12069 0.299402 1.72397e-21)
(0.772071 0.503812 -2.04379e-22)
(2.55806 -0.560884 2.36798e-20)
(3.25986 -0.131831 1.99511e-20)
(3.27273 -0.163558 2.14331e-21)
(1.16258 0.199567 -9.01205e-21)
(2.15169 -0.382699 2.52338e-21)
(1.51298 0.0860707 1.67111e-22)
(0.443689 0.359341 -5.20943e-22)
(0.378326 -0.166341 8.47088e-23)
(2.25674 -0.445615 -5.79068e-21)
(1.321 0.461258 -1.58101e-21)
(1.45472 0.333492 1.06471e-22)
(1.78338 0.166975 3.48102e-22)
(1.19277 0.423479 1.08919e-21)
(1.53812 0.293492 -3.47546e-22)
(1.86782 0.126825 -8.36185e-23)
(1.96444 0.0842967 -4.26737e-22)
(1.58879 0.0412832 1.97546e-22)
(1.27864 0.405924 -2.03561e-21)
(1.62014 0.25146 -5.60523e-23)
(1.2585 0.550131 -6.77847e-22)
(2.06432 0.0312863 2.96761e-21)
(1.07512 0.388721 -2.09526e-21)
(0.772193 0.102694 1.15435e-21)
(2.17474 0.041256 -6.02424e-21)
(1.13167 0.407838 -2.29234e-21)
(2.29394 0.303567 -1.75707e-21)
(1.36647 0.372568 8.01391e-22)
(1.70187 0.208519 2.74451e-22)
(2.41828 0.301658 8.65148e-22)
(1.89343 0.0246838 -4.85608e-22)
(1.66201 -0.00690043 3.84897e-22)
(2.0562 -0.316248 3.27529e-21)
(2.38558 -0.495379 -1.15711e-20)
(1.25691 0.18994 1.75392e-21)
(1.88264 -0.173515 -9.1147e-22)
(2.17628 0.303322 -1.55859e-21)
(1.43279 0.12622 1.17691e-21)
(1.34764 0.163756 1.35852e-21)
(2.06211 0.0950082 -5.0911e-22)
(1.89696 -0.0699353 9.05786e-22)
(2.27804 -0.00942862 -3.51305e-21)
(1.40553 0.425106 6.01789e-22)
(1.73474 0.262815 -7.61162e-22)
(2.27466 -0.0986399 -1.17515e-21)
(2.38088 -0.0580458 -1.34404e-20)
(0.791831 0.577642 9.2115e-22)
(1.48725 0.385885 -1.34305e-21)
(1.03225 0.649103 1.66149e-21)
(1.84172 0.364957 1.95829e-22)
(0.289664 0.349397 -3.83368e-22)
(2.17532 -0.043991 7.44731e-21)
(0.871041 0.613378 3.34012e-22)
(2.29154 0.0777143 -8.44693e-21)
(0.0726592 0.222704 3.3166e-22)
(0.951799 0.63529 -1.09889e-21)
(1.74667 0.387938 -1.09311e-21)
(3.24466 -0.156324 -1.29491e-20)
(1.0655 0.191702 -7.06886e-21)
(0.156943 0.247236 -6.70072e-24)
(0.591468 0.397159 -2.58206e-23)
(1.18348 0.636031 7.93158e-22)
(2.07601 -0.0849987 -3.61508e-22)
(1.65235 0.302608 2.21838e-22)
(1.81703 -0.0182848 3.94419e-22)
(1.74 0.0312714 -2.48433e-22)
(3.09599 -0.0802468 -4.6216e-20)
(0.560657 -0.0535626 -4.35928e-21)
(2.70797 -0.0636199 5.12525e-20)
(2.07361 -0.190824 1.84067e-22)
(0.943724 0.486588 -8.49886e-21)
(1.10902 0.65251 -8.22298e-22)
(2.71198 0.174139 -2.21669e-20)
(0.784401 0.319483 -5.7692e-21)
(2.6953 -0.162055 3.8688e-21)
(0.382061 0.344219 1.04125e-21)
(3.05106 -0.209913 2.25035e-20)
(1.57039 0.205104 -3.38986e-23)
(2.79559 -0.129056 3.11422e-20)
(2.87951 0.185591 -1.77289e-20)
(0.31484 0.343213 -8.57009e-22)
(1.94048 0.33939 3.27551e-21)
(1.5696 0.344161 4.28958e-22)
(2.98104 0.188371 -1.70261e-20)
(1.57531 0.450704 -4.70257e-22)
(2.93212 -0.164926 -6.87891e-21)
(0.969347 0.170578 1.66322e-21)
(1.91898 0.186392 5.59805e-21)
(2.39597 -0.34296 3.99944e-21)
(1.22252 0.290514 -2.89445e-21)
(2.41672 0.0161327 3.45651e-20)
(3.25413 -0.188969 -3.14302e-20)
(2.27911 -0.198666 -3.79261e-21)
(2.62818 -0.398497 1.29862e-20)
(2.59676 0.0141283 -8.84495e-20)
(3.02467 0.104404 1.59665e-20)
(0.651838 0.491425 1.54858e-21)
(0.0461095 -0.0349624 -6.47416e-22)
(1.02144 0.489019 6.19586e-22)
(2.72672 -0.269311 -1.42734e-20)
(1.49456 0.490655 3.84802e-22)
(1.4186 0.477436 1.78513e-21)
(0.565788 0.252334 -2.79965e-21)
(1.80714 -0.114343 4.11291e-22)
(0.300018 -0.0810221 1.55472e-22)
(1.66414 0.356599 -1.87672e-22)
(2.67148 0.294538 -2.48654e-21)
(2.59536 -0.188114 -3.38321e-20)
(0.338261 0.360483 -1.53714e-22)
(3.02153 -0.120101 5.7503e-21)
(0.553486 0.420882 -4.91724e-21)
(0.717746 0.512244 9.16679e-21)
(3.26313 -0.131358 -1.77771e-20)
(2.36724 0.176651 3.98829e-21)
(2.77473 0.0113336 -4.04875e-20)
(2.45547 -0.125774 2.93748e-21)
(0.482385 0.370275 -4.78099e-22)
(0.096028 0.258048 -3.86362e-22)
(1.2593 0.607357 -7.31745e-22)
(2.05307 0.320692 1.92176e-21)
(3.26834 -0.136561 1.14877e-21)
(0.755592 0.417365 -1.34005e-20)
(1.23499 0.489347 1.12268e-21)
(0.501771 0.30493 -1.66712e-20)
(3.19954 -0.157917 1.81852e-20)
(1.20818 0.356476 3.66045e-21)
(0.222125 0.235372 -1.30768e-21)
(3.22569 -0.0995439 -1.47982e-21)
(0.212773 0.186985 -1.27316e-21)
(3.22921 -0.0806811 -5.44461e-21)
(2.05667 0.161363 5.70822e-22)
(1.8185 0.225432 1.65772e-21)
(2.17878 -0.148125 -2.31815e-21)
(0.265209 0.00178585 1.23891e-21)
(2.1733 -0.255179 -2.13692e-21)
(0.438245 0.385641 2.06422e-21)
(3.23017 -0.095988 -3.95577e-20)
(2.5327 -0.0781432 5.19339e-20)
(2.5149 -0.334779 5.45287e-21)
(0.0904883 0.00805618 -3.19654e-22)
(0.880629 0.356627 1.43198e-20)
(1.32704 0.248919 -8.37699e-22)
(0.448853 0.390034 4.12028e-22)
(0.205154 0.333711 -6.84961e-22)
(0.875697 0.138924 -1.26301e-21)
(0.350403 -0.108537 5.42076e-23)
(0.630576 0.189239 -5.47828e-21)
(0.469337 -0.0155488 3.08969e-21)
(1.02766 0.557588 8.11576e-21)
(0.251607 0.335229 -4.13536e-22)
(3.22237 -0.188271 -6.52057e-21)
(0.256702 0.335843 1.45337e-21)
(1.15134 0.499361 -2.42476e-21)
(2.92243 0.00948911 6.04226e-20)
(0.860648 0.545455 7.34423e-21)
(0.493952 0.160927 1.79762e-20)
(3.24681 -0.190939 2.96424e-20)
(0.23148 0.337658 2.17343e-21)
(2.95298 -0.278973 2.06053e-20)
(0.0667053 0.140958 -1.82765e-21)
(0.719553 0.186374 1.00025e-20)
(2.94107 -0.400808 -2.80837e-20)
(0.215225 0.328942 4.41e-22)
(2.80974 -0.445372 -1.33566e-21)
(3.04724 0.025833 2.18334e-22)
(1.73095 0.116256 3.79302e-22)
(0.298552 0.356428 -8.03903e-23)
(0.484418 0.406298 -2.6768e-23)
(0.248759 -0.148015 2.26932e-23)
(1.98263 0.174778 -8.87694e-21)
(3.25666 -0.185121 1.11492e-20)
(1.17748 0.573207 1.69082e-21)
(3.27423 -0.141343 5.97813e-21)
(0.117778 -0.11417 -5.5203e-22)
(1.41321 0.530361 -3.5431e-22)
(0.177231 -0.167341 -6.66886e-22)
(1.30834 0.325727 1.66817e-21)
(3.20583 -0.00375841 -8.28034e-21)
(2.2777 -0.308569 -3.77308e-21)
(3.26981 -0.13832 -1.42527e-20)
(2.47563 0.0885841 1.78601e-20)
(0.124436 -0.145539 2.06769e-21)
(3.26579 -0.136568 1.99449e-20)
(0.39155 0.376526 -1.28759e-22)
(0.306626 0.269283 3.53786e-21)
(3.26068 -0.135197 9.43423e-22)
(2.95958 0.0903031 2.49952e-21)
(0.262011 0.348173 -1.18033e-22)
(2.5099 -0.482193 -1.40231e-20)
(1.41728 0.208823 -3.81016e-22)
(0.590856 0.107835 -9.44886e-21)
(1.65118 0.16118 -6.96209e-23)
(3.13745 -0.0521992 2.47019e-20)
(0.425167 0.373874 2.00137e-22)
(2.16092 0.125624 1.31634e-21)
(3.25523 -0.132286 -1.44155e-23)
(3.28106 -0.144591 -3.49908e-21)
(3.27421 -0.141078 -2.2235e-21)
(3.16168 0.0320476 -2.45508e-20)
(0.176041 0.328468 1.17807e-21)
(2.36825 -0.132857 -6.11119e-21)
(0.122365 0.205583 1.72312e-21)
(2.12394 0.217863 8.06976e-22)
(3.2542 -0.128649 6.19626e-21)
(3.28163 -0.146976 1.46109e-21)
(3.16428 0.0554856 1.55243e-20)
(0.652172 0.347206 2.21562e-20)
(3.25095 -0.129521 -5.53191e-22)
(1.09054 0.493713 8.07964e-22)
(1.39703 0.288834 7.31458e-22)
(0.506704 0.392357 1.74493e-22)
(2.48429 0.177287 2.97502e-21)
(0.288999 0.326316 1.62589e-22)
(0.423158 -0.153433 4.40048e-22)
(0.416307 -0.102817 -2.56408e-22)
(1.09216 0.578526 -3.62897e-21)
(1.65776 0.41822 7.17875e-22)
(0.340283 -0.0374784 -7.35107e-22)
(3.27876 -0.142356 6.3277e-21)
(0.335446 0.31346 6.51747e-23)
(0.252217 -0.197107 -1.81819e-21)
(0.861293 0.459643 1.23395e-21)
(1.50459 0.16707 -6.42765e-23)
(2.01378 0.246376 -1.60098e-22)
(3.11929 0.0124169 1.35566e-20)
(0.420302 0.213401 -2.9408e-20)
(2.69648 -0.453703 -3.79284e-21)
(3.24676 -0.128644 -1.84187e-22)
(0.0850954 -0.0813497 -7.86383e-22)
(1.92008 0.275005 -1.33324e-21)
(0.974239 0.381642 -7.15708e-21)
(0.690066 0.270652 -6.73382e-21)
(2.84815 -0.324828 -2.32824e-21)
(3.17581 -0.012378 -2.9608e-22)
(0.466633 -0.14513 -2.09218e-22)
(1.73278 -0.058047 4.46049e-22)
(0.221302 0.272806 1.43273e-22)
(1.33526 0.570356 6.37993e-22)
(2.58504 0.180244 -7.54563e-21)
(3.22404 -0.242771 -6.8958e-21)
(0.215907 -0.184594 -4.28899e-22)
(0.360368 0.369893 1.31233e-22)
(2.87035 -0.0649798 -6.47509e-20)
(0.432266 0.0862865 -2.22008e-22)
(2.38537 -0.227961 5.19953e-21)
(2.536 0.303713 -1.40417e-21)
(0.176574 -0.0284498 -1.60777e-21)
(1.48626 0.247677 4.59663e-23)
(0.52083 0.38174 3.50701e-23)
(3.27963 -0.150023 -9.51805e-22)
(3.2174 -0.0460641 -5.3223e-21)
(0.148974 0.321234 5.03599e-22)
(3.24144 -0.127389 -2.42376e-23)
(0.521233 0.0422801 -2.34202e-22)
(0.114184 0.136398 2.45633e-21)
(3.17069 -0.316444 -1.34658e-21)
(0.496196 -0.0787177 6.3126e-22)
(0.504452 -0.137946 -2.19386e-22)
(3.24895 -0.118943 6.42804e-22)
(2.83382 -0.229867 1.31491e-20)
(0.235128 0.0923051 4.10508e-21)
(0.20396 -0.173891 -7.45335e-22)
(0.128884 -0.136198 -4.09788e-22)
(0.551084 -0.118646 -1.08717e-22)
(0.0786766 -0.0614122 -1.12724e-22)
(0.125206 0.307 -1.28953e-21)
(0.232673 0.313959 -6.68293e-22)
(0.393814 0.362532 1.31391e-22)
(0.0383477 -0.0222675 7.66473e-22)
(0.058134 -0.0522059 -1.16358e-21)
(0.30488 0.316977 6.78962e-22)
(0.303807 0.0600235 -1.0424e-21)
(0.0210245 0.101809 2.15978e-22)
(0.555228 0.389893 2.80442e-22)
(3.27218 -0.158416 -6.86815e-21)
(0.5327 -0.129454 -3.94252e-22)
(3.19527 -0.00922602 9.21942e-22)
(0.0282193 0.00526392 -2.20396e-22)
(3.23391 -0.125151 -8.78165e-23)
(3.27514 -0.152266 2.7823e-21)
(3.22666 -0.168536 -2.72116e-21)
(3.18508 -0.138169 -1.2071e-22)
(3.19028 -0.0550391 -1.62197e-20)
(0.29306 -0.163453 -3.08828e-22)
(0.439634 -0.13032 1.03738e-21)
(0.160489 -0.153074 5.62682e-23)
(0.246216 0.343485 -6.99857e-22)
(0.121383 -0.0834836 -4.1519e-24)
(0.467846 0.384523 -2.02071e-22)
(0.127188 -0.0267762 8.07397e-22)
(0.106333 0.2866 -6.62967e-22)
(0.284058 0.168683 1.03869e-20)
(2.62342 -0.301086 -2.61907e-21)
(0.116914 0.286144 6.53207e-22)
(3.25719 -0.166608 8.16419e-21)
(0.27319 0.342001 -1.16093e-22)
(0.089326 0.259237 9.75191e-22)
(3.16271 -0.142839 -3.42636e-21)
(3.19933 -0.175918 -1.05367e-20)
(0.540718 0.40612 -9.27404e-22)
(0.0238804 0.0433755 -6.31845e-22)
(0.129415 0.0506272 -9.31545e-22)
(0.0398559 0.0744209 8.82708e-23)
(0.38738 -0.136588 -3.20026e-22)
(0.181954 0.331037 -2.50248e-23)
(0.0170763 0.0780716 8.11794e-22)
(0.31564 0.347268 2.93817e-22)
(3.27792 -0.155795 -1.68078e-21)
(0.379233 0.0212828 1.52193e-21)
(3.27828 -0.145197 7.34912e-22)
(3.26516 -0.156118 1.0699e-20)
(3.22443 -0.12374 -5.5798e-23)
(3.20936 -0.127201 6.1928e-21)
(3.24994 -0.161337 -4.88654e-21)
(3.24058 -0.119114 -1.37424e-21)
(3.21595 -0.242831 -7.08326e-21)
(0.946471 0.57182 -2.96398e-22)
(0.53882 0.427972 2.72651e-21)
(0.295382 -0.130643 -5.39977e-22)
(0.24365 -0.182235 2.30303e-22)
(3.24575 -0.120681 1.89098e-21)
(0.337056 -0.150938 9.3436e-22)
(3.17437 -0.131973 -1.62088e-20)
(0.0236966 0.102296 -1.25462e-22)
(0.23468 -0.0518124 1.16316e-22)
(0.0669556 0.222143 -1.90368e-22)
(0.41867 -0.058807 2.34086e-22)
(0.385609 0.379179 -6.44908e-22)
(3.25129 -0.117992 3.13032e-20)
(0.0864817 0.0752333 3.96776e-22)
(3.27964 -0.150355 3.30394e-22)
(2.73902 -0.360498 -4.93789e-21)
(0.52571 0.418848 1.43194e-22)
(0.153242 0.319371 -5.98861e-23)
(0.0603701 0.142298 3.558e-22)
(3.18979 -0.20387 1.73007e-20)
(0.0679838 0.187617 -8.80416e-22)
(0.132588 0.304804 6.47206e-23)
(0.316139 0.354413 1.06294e-21)
(0.161866 -0.103386 -9.1176e-23)
(0.351297 0.247311 -3.81596e-21)
(0.163748 -0.0609576 -3.92717e-23)
(3.23979 -0.104049 1.1327e-20)
(0.236649 -0.201256 -4.66445e-23)
(0.179621 0.30963 -3.86514e-22)
(0.204418 -0.078665 2.21613e-22)
(0.583473 -0.0890973 2.11454e-21)
(3.17364 -0.116257 -1.25445e-20)
(0.619426 0.441143 -1.372e-21)
(0.605271 0.410203 2.31767e-21)
(3.17292 -0.19095 -2.29925e-20)
(0.487336 -0.126271 2.06909e-22)
(0.488335 -0.416703 1.03857e-21)
(0.517307 -0.418057 -8.47828e-23)
(0.574652 -0.425057 -5.82612e-22)
(0.613976 -0.42995 3.1333e-22)
(0.652399 -0.430218 -3.38286e-22)
(0.684094 -0.427494 -9.10556e-22)
(0.71506 -0.422906 1.70497e-22)
(0.74294 -0.417419 2.20418e-22)
(0.772704 -0.410179 2.43538e-22)
(0.522397 -0.408499 -8.1183e-22)
(0.551597 -0.408448 -8.9537e-23)
(0.606304 -0.414934 4.62664e-22)
(0.64565 -0.420821 -8.24417e-22)
(0.68277 -0.42235 6.62835e-22)
(0.714155 -0.421658 1.03393e-21)
(0.743703 -0.41893 -6.30488e-22)
(0.77063 -0.415351 7.1097e-22)
(0.796488 -0.410362 -3.51691e-22)
(0.557152 -0.39261 1.93914e-21)
(0.585547 -0.392544 4.5482e-22)
(0.637904 -0.399344 -8.92554e-22)
(0.677009 -0.405899 4.18825e-22)
(0.712957 -0.408688 -1.01441e-21)
(0.743749 -0.409558 -1.32518e-22)
(0.772201 -0.408654 -2.41609e-23)
(0.798017 -0.406891 -3.22801e-22)
(0.822018 -0.404307 -5.04966e-22)
(0.591491 -0.37089 -8.79585e-22)
(0.61822 -0.371376 1.95903e-22)
(0.668399 -0.378743 6.04893e-22)
(0.706961 -0.38601 2.38943e-23)
(0.741974 -0.390091 4.04929e-22)
(0.772234 -0.392403 1.11327e-21)
(0.799785 -0.39302 -6.72186e-22)
(0.824661 -0.392688 1.16529e-22)
(0.84759 -0.391605 2.03674e-22)
(0.624239 -0.345096 1.19617e-22)
(0.648367 -0.345835 -1.209e-22)
(0.696565 -0.353936 2.5995e-23)
(0.734585 -0.361929 -1.93687e-22)
(0.76886 -0.367263 1.01585e-22)
(0.798687 -0.370879 -2.38061e-22)
(0.825613 -0.372857 8.27228e-23)
(0.849888 -0.373778 3.76397e-22)
(0.872335 -0.373675 7.99703e-23)
(0.654068 -0.316789 1.06978e-22)
(0.675137 -0.317008 -2.71721e-22)
(0.721542 -0.325934 5.72904e-23)
(0.759162 -0.334452 3.91251e-22)
(0.79292 -0.340935 -1.22546e-22)
(0.82246 -0.345729 -1.70668e-22)
(0.848986 -0.348976 -7.06918e-23)
(0.87289 -0.3511 -5.54661e-22)
(0.894862 -0.352343 2.69963e-22)
(0.67907 -0.287724 8.6506e-23)
(0.698243 -0.285984 1.98882e-22)
(0.74297 -0.295666 5.3097e-23)
(0.78032 -0.304293 -1.67936e-22)
(0.81372 -0.311727 3.43218e-23)
(0.843101 -0.317529 -2.54915e-24)
(0.869406 -0.321906 1.30849e-22)
(0.893092 -0.325131 -1.29646e-22)
(0.914827 -0.327556 -1.01394e-22)
(0.698281 -0.25658 -9.32127e-23)
(0.718056 -0.252955 9.57617e-23)
(0.760972 -0.263376 1.63831e-24)
(0.797946 -0.271854 -4.45116e-24)
(0.831019 -0.280071 -4.21773e-23)
(0.860328 -0.286721 1.59523e-22)
(0.886567 -0.292082 1.8939e-22)
(0.910192 -0.296328 -1.95384e-22)
(0.931932 -0.299345 6.04505e-23)
(0.712545 -0.22094 4.00018e-23)
(0.734653 -0.217141 -1.65355e-23)
(0.775468 -0.228718 -2.19326e-23)
(0.811853 -0.237248 -1.2312e-23)
(0.844606 -0.246237 -1.33159e-23)
(0.873937 -0.253625 -4.44753e-24)
(0.900268 -0.259813 -2.42468e-24)
(0.924052 -0.264804 1.67553e-22)
(0.945816 -0.268863 -9.50157e-24)
(0.722366 -0.181329 -6.05623e-23)
(0.747268 -0.178471 -1.27044e-23)
(0.785862 -0.191728 2.43853e-23)
(0.821653 -0.20073 3.38825e-23)
(0.854237 -0.210529 -1.12694e-23)
(0.883766 -0.218544 1.18981e-23)
(0.91041 -0.225355 9.51309e-24)
(0.93457 -0.230854 3.59186e-23)
(0.956754 -0.2352 -1.98945e-23)
(0.727293 -0.138819 1.22805e-22)
(0.754932 -0.13766 3.81295e-23)
(0.791428 -0.153131 -4.96833e-23)
(0.826947 -0.162886 -1.55422e-23)
(0.859708 -0.173403 -1.81879e-24)
(0.889712 -0.181849 1.47384e-23)
(0.916944 -0.189047 1.26664e-24)
(0.941799 -0.194801 -7.97447e-24)
(0.964723 -0.199384 -1.83035e-23)
(0.727906 -0.0953464 -2.29718e-22)
(0.757004 -0.0967146 -6.14437e-23)
(0.791721 -0.114472 8.49196e-23)
(0.827609 -0.124669 -1.81576e-23)
(0.860999 -0.13544 2.79689e-24)
(0.891761 -0.143929 -3.37369e-23)
(0.919794 -0.151175 2.24187e-24)
(0.945496 -0.156907 1.76676e-23)
(0.969385 -0.162086 3.94278e-24)
(0.722862 -0.0541605 -5.57898e-23)
(0.752264 -0.0586537 1.79044e-23)
(0.787237 -0.077164 1.33147e-24)
(0.824116 -0.0868967 -1.25771e-23)
(0.858435 -0.09707 9.63412e-24)
(0.890096 -0.105006 9.69412e-24)
(0.919016 -0.111788 1.51524e-23)
(0.945604 -0.117232 -2.13231e-23)
(0.9707 -0.121804 1.52164e-23)
(0.70843 -0.0163244 7.39562e-23)
(0.742399 -0.0227719 -6.47609e-24)
(0.779215 -0.0408109 6.00872e-24)
(0.817248 -0.0493432 -1.78569e-23)
(0.85249 -0.0581816 3.33101e-24)
(0.885005 -0.0650174 2.06443e-24)
(0.914779 -0.0708452 1.18293e-23)
(0.942252 -0.0755176 -2.0311e-24)
(0.968118 -0.0789162 -7.4457e-24)
(0.686091 0.0207864 -2.19381e-22)
(0.727981 0.01309 5.48123e-23)
(0.767934 -0.00387093 -4.34533e-23)
(0.807268 -0.0110415 5.59084e-23)
(0.843343 -0.0182165 -7.36134e-24)
(0.876588 -0.0236707 -2.14932e-23)
(0.907128 -0.0282595 -1.34951e-23)
(0.935472 -0.0318012 -1.67026e-23)
(0.962261 -0.0341992 3.87194e-23)
(0.656815 0.0586442 -1.77127e-22)
(0.708807 0.0501721 -8.23018e-23)
(0.752935 0.0351162 6.14771e-23)
(0.793821 0.0290682 -7.21993e-23)
(0.830715 0.0234826 -2.84659e-23)
(0.864605 0.0193815 1.67384e-23)
(0.895811 0.0160818 3.17168e-24)
(0.924882 0.0137756 -4.7668e-23)
(0.952334 0.0122873 2.55098e-23)
(0.621428 0.0996437 -3.60589e-22)
(0.684211 0.0899752 6.80989e-23)
(0.733262 0.0772447 -2.73629e-23)
(0.776024 0.0716956 4.19248e-23)
(0.813902 0.0672691 5.02776e-23)
(0.848508 0.0642426 -2.05163e-22)
(0.880398 0.0620989 1.32402e-22)
(0.910175 0.0610459 3.26717e-23)
(0.938615 0.06037 -1.45054e-23)
(0.585533 0.142556 6.54563e-22)
(0.652573 0.132464 -1.02234e-22)
(0.707353 0.121962 4.62063e-23)
(0.752644 0.116434 -7.64152e-23)
(0.791983 0.112691 -1.32043e-23)
(0.827611 0.110438 1.9297e-22)
(0.86037 0.109278 -2.05352e-23)
(0.890941 0.109298 6.87896e-23)
(0.920205 0.11001 5.65702e-23)
(0.553092 0.182274 1.32514e-22)
(0.616795 0.173144 3.40029e-23)
(0.675243 0.166097 9.0903e-23)
(0.723268 0.161132 2.60763e-22)
(0.764487 0.158202 -6.66241e-23)
(0.801481 0.156737 -9.7116e-23)
(0.835336 0.156505 -1.05913e-22)
(0.866877 0.157437 -1.17261e-22)
(0.897038 0.159306 2.82813e-23)
(0.522722 0.21632 -1.23993e-22)
(0.579357 0.208984 1.8786e-24)
(0.638911 0.206489 -2.9244e-22)
(0.688872 0.203363 3.03802e-23)
(0.731854 0.201915 -1.27701e-22)
(0.77027 0.201644 8.53568e-23)
(0.805289 0.202586 5.06504e-22)
(0.837784 0.20467 7.74854e-23)
(0.868656 0.207726 2.77254e-23)
(0.493437 0.245524 -2.26589e-22)
(0.541877 0.239902 7.08328e-22)
(0.60049 0.241826 -3.49664e-22)
(0.651018 0.241547 2.95953e-22)
(0.695151 0.242245 -2.07387e-22)
(0.734715 0.243661 2.39963e-23)
(0.770804 0.24607 -1.94999e-22)
(0.804318 0.249417 -1.51751e-22)
(0.836051 0.254073 3.42957e-23)
(0.464259 0.270406 -6.29769e-22)
(0.504575 0.266307 -5.86395e-22)
(0.561341 0.27172 9.43065e-22)
(0.611119 0.274861 -1.13851e-22)
(0.655568 0.278121 6.33262e-22)
(0.695732 0.281616 -1.91765e-22)
(0.732553 0.285751 -5.15664e-23)
(0.766992 0.290456 7.57186e-23)
(0.798967 0.297442 -2.8023e-23)
(0.435431 0.289365 3.3099e-22)
(0.467756 0.288229 3.7628e-22)
(0.522577 0.296202 -5.8305e-22)
(0.570503 0.303132 -5.20427e-22)
(0.614388 0.309062 -4.61128e-22)
(0.654482 0.314765 4.34943e-23)
(0.691557 0.320648 1.11887e-22)
(0.726625 0.326836 -2.97383e-22)
(0.758936 0.335635 6.96374e-22)
(0.406774 0.300383 -1.05259e-22)
(0.431842 0.305533 -4.91696e-23)
(0.484244 0.315392 2.11693e-22)
(0.529306 0.326026 -3.04093e-22)
(0.571787 0.334369 4.7874e-22)
(0.611252 0.34223 1.03147e-22)
(0.648245 0.34979 -5.28069e-22)
(0.684092 0.357504 5.43139e-22)
(0.716833 0.370118 -8.84304e-23)
(0.375569 0.307025 -5.11096e-22)
(0.398487 0.322618 3.70319e-24)
(0.448501 0.334739 1.14983e-23)
(0.490784 0.347137 2.7767e-22)
(0.531286 0.356554 -1.12144e-22)
(0.569189 0.365315 3.26126e-22)
(0.605263 0.373104 -1.49014e-22)
(0.642517 0.380081 2.79894e-22)
(0.679026 0.394337 1.36933e-22)
(0.414011 0.406718 -2.8672e-22)
(0.408201 0.406304 -3.28509e-22)
(0.402434 0.404471 -8.90473e-22)
(0.396158 0.401809 1.22978e-21)
(0.389046 0.398154 -9.0807e-22)
(0.380951 0.393407 6.68906e-22)
(0.371765 0.387425 2.71904e-22)
(0.361375 0.380059 -4.45543e-23)
(0.349679 0.371154 -4.73701e-22)
(0.336609 0.360551 -2.35823e-22)
(0.322152 0.348088 2.34949e-22)
(0.306364 0.333605 -3.00464e-22)
(0.289254 0.316952 7.78137e-22)
(0.270705 0.298403 -2.01918e-21)
(0.250752 0.278246 3.60592e-21)
(0.229728 0.256615 -4.18834e-21)
(0.208077 0.233624 3.86382e-21)
(0.186255 0.209415 -1.71228e-21)
(0.164692 0.184187 -5.8628e-22)
(0.143764 0.158205 6.24062e-22)
(0.123735 0.131818 -2.19414e-22)
(0.104657 0.105437 4.66723e-22)
(0.0862291 0.0795328 4.96918e-23)
(0.0682045 0.0551663 -6.7126e-22)
(0.0530692 0.0317009 5.25375e-22)
(0.0436406 0.00783713 -2.82076e-22)
(0.0398183 -0.0165151 3.43452e-22)
(0.0419139 -0.0417164 2.75062e-22)
(0.047228 -0.0681492 -3.20525e-22)
(0.0528602 -0.0955906 8.63773e-24)
(0.0589727 -0.123298 -2.93892e-22)
(0.0663391 -0.150693 2.56645e-22)
(0.0753929 -0.177539 4.9724e-22)
(0.0861562 -0.20366 -3.86875e-22)
(0.0984619 -0.228676 5.61293e-22)
(0.112128 -0.252411 -9.28628e-22)
(0.12689 -0.274684 6.18935e-23)
(0.142439 -0.29535 2.06121e-22)
(0.158463 -0.314299 -3.04658e-22)
(0.174663 -0.33148 6.89853e-22)
(0.190721 -0.346852 -3.88592e-22)
(0.206895 -0.36024 -1.72886e-21)
(0.223667 -0.371549 3.45225e-21)
(0.241084 -0.380913 -3.70862e-21)
(0.259047 -0.388557 3.20748e-21)
(0.27743 -0.394707 -1.86986e-21)
(0.296059 -0.399594 9.73782e-22)
(0.314724 -0.403449 -3.19185e-22)
(0.333188 -0.406451 3.32665e-22)
(0.351186 -0.408767 -3.21399e-22)
(0.368443 -0.410562 -4.92658e-22)
(0.384726 -0.41197 -1.74605e-22)
(0.399874 -0.4131 2.23023e-22)
(0.413806 -0.414028 6.20417e-22)
(0.42652 -0.414797 -9.20113e-22)
(0.438067 -0.415432 1.19606e-21)
(0.448524 -0.415942 -7.96894e-22)
(0.457953 -0.416338 -2.96508e-22)
(0.466475 -0.416682 -2.26828e-22)
(0.423379 0.350068 -3.37377e-23)
(0.416013 0.346007 -2.85133e-23)
(0.408547 0.341173 -5.53071e-24)
(0.400763 0.335648 -8.68863e-23)
(0.392563 0.329373 -1.09157e-22)
(0.383922 0.322312 3.80758e-22)
(0.374796 0.314439 -5.85149e-23)
(0.36513 0.305735 1.40597e-22)
(0.354869 0.296186 -4.90036e-22)
(0.343975 0.285777 -2.97937e-23)
(0.332425 0.274509 2.38302e-22)
(0.320117 0.262385 2.45317e-22)
(0.306716 0.249746 -7.47713e-22)
(0.291867 0.23684 8.80377e-22)
(0.275568 0.223583 -9.17153e-22)
(0.258138 0.209642 3.63819e-22)
(0.239955 0.194649 6.02551e-22)
(0.221277 0.178549 -3.38916e-22)
(0.202345 0.161229 -7.35519e-23)
(0.18343 0.142637 4.66215e-23)
(0.164806 0.122751 6.22461e-24)
(0.146748 0.101539 1.64362e-22)
(0.129636 0.0788528 -6.66979e-23)
(0.114318 0.0542383 -5.50596e-23)
(0.102178 0.0272702 1.32037e-22)
(0.0935595 -0.00141678 -4.16151e-23)
(0.0884884 -0.030992 1.05162e-24)
(0.0870874 -0.0605942 1.68238e-23)
(0.0892816 -0.089461 2.31601e-23)
(0.0938326 -0.117479 2.19116e-25)
(0.100067 -0.144856 -2.04903e-23)
(0.107966 -0.171634 -1.61018e-23)
(0.11771 -0.197609 2.19038e-25)
(0.129178 -0.222593 5.8619e-23)
(0.142164 -0.246402 -1.40815e-22)
(0.156477 -0.268902 4.94565e-23)
(0.171903 -0.28999 -1.00664e-22)
(0.188222 -0.309615 9.71622e-23)
(0.205234 -0.327761 1.16092e-24)
(0.222782 -0.344447 -2.1344e-23)
(0.240798 -0.359712 -5.59166e-23)
(0.2593 -0.373533 -1.87501e-23)
(0.278257 -0.385802 -7.71024e-23)
(0.297518 -0.39641 -9.04146e-23)
(0.316868 -0.405307 1.18177e-22)
(0.336069 -0.412503 -1.20924e-22)
(0.354874 -0.418043 5.48766e-23)
(0.372953 -0.422115 2.09672e-23)
(0.389932 -0.424999 -7.07861e-23)
(0.40561 -0.426903 1.5467e-23)
(0.41994 -0.428008 1.27562e-22)
(0.432929 -0.428506 -2.31927e-23)
(0.444674 -0.428518 5.47186e-23)
(0.455423 -0.42808 -1.98634e-22)
(0.465339 -0.427235 3.11543e-23)
(0.47454 -0.426084 7.01857e-23)
(0.48303 -0.424751 -6.43857e-23)
(0.490806 -0.423345 1.32273e-23)
(0.497991 -0.421953 -1.79816e-23)
(0.486642 0.322161 -2.51431e-22)
(0.479997 0.317061 6.42613e-23)
(0.47308 0.311208 -1.78851e-22)
(0.465896 0.304681 -2.59008e-23)
(0.458349 0.297438 5.97415e-22)
(0.45038 0.289511 -1.78727e-22)
(0.441929 0.280938 -3.50218e-22)
(0.432933 0.271769 -7.84777e-25)
(0.42333 0.262061 2.04306e-22)
(0.413046 0.251886 -5.12679e-23)
(0.401993 0.241336 5.69674e-22)
(0.390042 0.230523 -6.98144e-22)
(0.377061 0.21954 6.38571e-22)
(0.363008 0.208239 -8.58394e-23)
(0.347952 0.196409 -6.04098e-22)
(0.33202 0.183761 1.9307e-22)
(0.315309 0.170195 7.50065e-22)
(0.297932 0.15559 -2.65156e-22)
(0.280082 0.139802 -7.37979e-23)
(0.262018 0.122688 2.79801e-23)
(0.24406 0.104102 -1.9357e-22)
(0.226599 0.0838924 4.07261e-23)
(0.210126 0.0619008 -5.62168e-22)
(0.195292 0.0380142 6.70719e-22)
(0.182914 0.0123581 -2.55071e-22)
(0.173663 -0.0146604 1.17179e-23)
(0.167864 -0.0425645 3.82071e-23)
(0.16557 -0.070831 -1.61497e-22)
(0.166466 -0.0988771 1.03557e-22)
(0.169977 -0.126316 5.32732e-23)
(0.175652 -0.153035 1.18555e-22)
(0.183252 -0.17897 -1.25197e-22)
(0.19264 -0.203995 5.24249e-23)
(0.203676 -0.227954 6.68791e-23)
(0.216194 -0.250716 -2.54032e-22)
(0.230013 -0.272181 6.94833e-22)
(0.244946 -0.292272 -4.4931e-22)
(0.260802 -0.310947 -8.99506e-23)
(0.277408 -0.328188 -1.26794e-22)
(0.29461 -0.34399 -4.47181e-23)
(0.312283 -0.358354 -1.91162e-22)
(0.33032 -0.371257 -3.53173e-22)
(0.348587 -0.382662 7.72717e-22)
(0.366889 -0.392554 3.85943e-22)
(0.384995 -0.400961 -7.64221e-22)
(0.402665 -0.407954 -2.77753e-22)
(0.419676 -0.41363 8.12859e-22)
(0.435848 -0.418127 -9.61585e-22)
(0.451032 -0.421628 6.56758e-22)
(0.465177 -0.424309 -1.4349e-23)
(0.47833 -0.426308 2.98317e-22)
(0.490573 -0.427727 8.39113e-23)
(0.501978 -0.428673 -4.48138e-22)
(0.512604 -0.429216 -2.41487e-22)
(0.522544 -0.429377 7.27394e-22)
(0.531814 -0.429226 2.44907e-24)
(0.54038 -0.428849 -1.95021e-22)
(0.548302 -0.428323 6.94682e-23)
(0.555618 -0.427674 -2.34234e-22)
(0.531698 0.300901 2.80392e-24)
(0.525301 0.296005 9.18794e-23)
(0.518626 0.290458 -2.79332e-23)
(0.511601 0.28429 -1.70364e-24)
(0.504122 0.277512 1.10759e-23)
(0.496116 0.270179 2.00704e-23)
(0.487514 0.262344 1.82972e-23)
(0.478251 0.254061 7.09792e-23)
(0.468272 0.245373 -4.3589e-23)
(0.457528 0.236318 -3.95802e-23)
(0.445977 0.226914 -5.13355e-23)
(0.433579 0.217153 7.41544e-23)
(0.420303 0.20698 -6.99142e-23)
(0.406146 0.196294 -1.84966e-23)
(0.391147 0.18497 -1.74467e-23)
(0.375386 0.172877 2.6348e-24)
(0.358976 0.159878 1.03829e-23)
(0.342071 0.145815 -2.08504e-23)
(0.324875 0.130515 -7.03395e-23)
(0.307648 0.113803 1.38162e-23)
(0.290709 0.0955156 -3.25408e-24)
(0.27444 0.0755174 -1.71659e-22)
(0.259292 0.0537176 8.56213e-23)
(0.245778 0.0301087 1.31078e-22)
(0.234432 0.00483267 -9.55682e-23)
(0.225675 -0.0217971 1.20499e-23)
(0.219772 -0.0493596 1.12238e-22)
(0.216825 -0.0773834 -1.26481e-22)
(0.216761 -0.105406 4.0687e-23)
(0.219338 -0.133058 -1.10353e-23)
(0.224297 -0.160096 5.10142e-23)
(0.231417 -0.186338 -1.14436e-22)
(0.240514 -0.211617 8.11901e-23)
(0.251403 -0.235781 -4.90825e-24)
(0.263891 -0.258698 -8.70493e-23)
(0.277783 -0.280258 1.56377e-23)
(0.292875 -0.300377 9.44543e-23)
(0.30896 -0.318996 -1.01176e-23)
(0.325836 -0.336078 -4.79174e-23)
(0.343302 -0.351605 7.71371e-23)
(0.361163 -0.365572 7.45481e-26)
(0.379219 -0.377983 -2.69062e-23)
(0.397263 -0.388854 1.65119e-22)
(0.41508 -0.398225 -1.60933e-22)
(0.432466 -0.406169 7.28654e-23)
(0.449247 -0.41279 9.47818e-25)
(0.465284 -0.418213 2.72873e-22)
(0.480486 -0.422578 -2.41942e-22)
(0.49481 -0.42603 1.25905e-22)
(0.508264 -0.428702 1.22164e-22)
(0.520883 -0.430706 1.55993e-22)
(0.532708 -0.432136 -1.44685e-22)
(0.543776 -0.433076 -2.94756e-23)
(0.554113 -0.433594 -5.29867e-23)
(0.563746 -0.433762 -9.48477e-23)
(0.572669 -0.433646 6.4569e-23)
(0.580905 -0.433305 -1.29094e-22)
(0.5885 -0.432797 2.60823e-22)
(0.595489 -0.43218 -6.93975e-23)
(0.590938 0.287317 -3.37574e-22)
(0.585321 0.281948 4.82755e-23)
(0.57931 0.275992 2.74022e-22)
(0.572847 0.269554 -1.8717e-22)
(0.565793 0.26265 4.2333e-23)
(0.558052 0.255344 1.55268e-22)
(0.54954 0.247688 -1.76529e-22)
(0.540188 0.239718 7.30062e-23)
(0.529947 0.231456 2.36661e-22)
(0.51879 0.222901 -5.42484e-23)