/*--------------------------------*- C++ -*----------------------------------*\
  =========                 |
  \\      /  F ield         | OpenFOAM: The Open Source CFD Toolbox
   \\    /   O peration     | Website:  https://openfoam.org
    \\  /    A nd           | Version:  10
     \\/     M anipulation  |
\*---------------------------------------------------------------------------*/
FoamFile
{
    format      ascii;
    class       volScalarField;
    location    "300";
    object      epsilon;
}
// * * * * * * * * * * * * * * * * * * * * * * * * * * * * * * * * * * * * * //

dimensions      [0 2 -3 0 0 0 0];

internalField   nonuniform List<scalar> 
23845
(
0.0266452
0.0460378
0.0554452
0.0124093
0.0343682
0.00162955
0.0628255
0.00939058
0.00240242
0.018659
0.0134513
0.00125208
0.00373872
0.00203349
0.103071
0.00993273
0.00379357
0.00413278
0.00476092
0.00201692
0.0261359
0.0123908
0.0247562
0.00253148
0.0164437
0.00325151
0.0444186
0.00184563
0.00903062
0.00212723
0.0139077
0.0209278
0.121365
0.00421677
0.00127282
0.00159362
0.0170896
0.00127266
0.00134924
0.00231875
0.00527576
0.00293212
0.00371875
0.00304109
0.00353556
0.0034434
0.0246105
0.00881847
0.0197841
0.00932473
0.0127723
0.0442276
0.0240889
0.00200185
0.0201469
0.00399104
0.0465285
0.0098436
0.0308596
0.0327545
0.00916466
0.00324741
0.00832128
0.0122737
0.00275101
0.00345619
0.049912
0.00363484
0.00366241
0.00510448
0.00908703
0.0413635
0.00351948
0.089963
0.00302141
0.100343
0.00124951
0.00137431
0.010074
0.00513145
0.0339226
0.0768383
0.0481362
0.00995661
0.0642496
0.00129116
0.0670493
0.0252769
0.00269997
0.00509375
0.0123706
0.00590491
0.0101291
0.00152943
0.0101304
0.010891
0.00347704
0.0096207
0.00292788
0.0274764
0.00404881
0.0538734
0.0350079
0.012831
0.0127092
0.0102943
0.00175021
0.0031663
0.0460421
0.00302825
0.0112591
0.00128995
0.0847509
0.0129077
0.0016703
0.0180605
0.00310504
0.0124234
0.00910238
0.0118678
0.00132418
0.0152013
0.00542312
0.0210037
0.0578358
0.00328437
0.00907207
0.0093625
0.0415457
0.0275455
0.0624847
0.0255346
0.0179199
0.00180832
0.00464373
0.0308027
0.0108097
0.00123414
0.0409195
0.0013911
0.0100425
0.00274556
0.00140435
0.0032347
0.00651579
0.00284266
0.0141096
0.0786085
0.0194955
0.00609439
0.116568
0.00343403
0.0552447
0.00271832
0.0800263
0.00889321
0.0352961
0.00139435
0.0825614
0.00991375
0.00605655
0.0967476
0.0104071
0.00263245
0.00450022
0.00652277
0.00162116
0.0136162
0.00186487
0.00256193
0.00167434
0.0135982
0.00262143
0.0170673
0.0027829
0.00986354
0.00646203
0.0122691
0.00313445
0.00137836
0.0272318
0.0242727
0.0866739
0.0100693
0.00763395
0.00418864
0.00319121
0.0098652
0.00879328
0.00295846
0.0108501
0.00208213
0.00213398
0.00185912
0.00676409
0.0022884
0.0118792
0.00930387
0.0226201
0.0114938
0.00689256
0.00231162
0.0166431
0.023167
0.00959986
0.0102135
0.0533642
0.00152339
0.0344524
0.00496783
0.00514283
0.012234
0.00680177
0.00206496
0.0163584
0.0189823
0.020582
0.0034072
0.0140402
0.0569134
0.00359027
0.0956037
0.0115305
0.00796973
0.00285744
0.111245
0.0113234
0.00209825
0.00167819
0.00545953
0.00149661
0.0176629
0.00131047
0.00365522
0.0344079
0.00899908
0.00286021
0.0124941
0.00298123
0.0154563
0.0229716
0.0125239
0.00989646
0.0322364
0.0141114
0.00888943
0.00177646
0.00375815
0.00999225
0.0954179
0.00292039
0.00138945
0.0124657
0.00405631
0.0804915
0.0118202
0.0147993
0.0109397
0.00159335
0.0025052
0.028811
0.0014037
0.0090356
0.0103968
0.00952196
0.00252825
0.00985952
0.0264039
0.0181146
0.0117648
0.00136289
0.0123474
0.0138663
0.00209467
0.0106122
0.00221852
0.010855
0.00207218
0.0222288
0.0258689
0.0110134
0.00173397
0.0116478
0.00638727
0.00131366
0.013004
0.0174958
0.00248026
0.00996861
0.0857705
0.00983667
0.0158123
0.0114299
0.0107194
0.00990012
0.00129221
0.0168723
0.00190135
0.00131307
0.00964318
0.0883073
0.104353
0.00906692
0.0116827
0.00198206
0.0123778
0.0138463
0.0134748
0.00398867
0.0100518
0.0142724
0.0522286
0.00409715
0.00169734
0.0311584
0.00966415
0.0150257
0.0198931
0.0115929
0.0036864
0.0144255
0.0129163
0.0294346
0.00203124
0.0925405
0.00152851
0.0104235
0.0262156
0.015136
0.0048589
0.0628933
0.0063198
0.0122182
0.00139772
0.0158671
0.0134156
0.0188892
0.00431709
0.00278094
0.00999204
0.0156092
0.0237048
0.012
0.00371045
0.00371618
0.0253368
0.00139581
0.0109226
0.0102464
0.103937
0.0178926
0.0600349
0.00897787
0.0116468
0.024349
0.00208001
0.00238468
0.00320051
0.0875377
0.00974503
0.0286041
0.002722
0.0133331
0.00585451
0.00878128
0.00169866
0.0208444
0.00160369
0.00933429
0.00319865
0.00273937
0.0123979
0.028277
0.00125377
0.00144022
0.0118416
0.0294368
0.0150546
0.00257021
0.0129481
0.0860637
0.00143039
0.0232152
0.00372073
0.0036869
0.00131526
0.00155079
0.00992074
0.00660976
0.00987034
0.0497497
0.00269316
0.0176105
0.0157847
0.014905
0.0100188
0.00955033
0.00332617
0.00518901
0.001421
0.0234871
0.0158673
0.0103504
0.0185863
0.0416932
0.0911204
0.00146824
0.0214555
0.0107525
0.0111482
0.107362
0.00363564
0.0731113
0.0231916
0.0384088
0.0346177
0.0193943
0.00942364
0.00147957
0.0183703
0.100803
0.00230587
0.00231836
0.0101014
0.00955813
0.0386196
0.0908578
0.0156217
0.0214196
0.0267332
0.00222847
0.00427043
0.0250823
0.00420976
0.00291458
0.00336545
0.00124824
0.00412134
0.00931617
0.0197363
0.100713
0.0734601
0.01149
0.0399084
0.0156892
0.017073
0.00194006
0.0175638
0.00148721
0.0138594
0.00991552
0.00307792
0.0614478
0.0014296
0.00342528
0.02207
0.033029
0.0250783
0.010207
0.00213366
0.0376679
0.0111676
0.0109332
0.0300421
0.00159616
0.00144882
0.001848
0.0169261
0.00372332
0.10567
0.00211094
0.00159993
0.014355
0.00979648
0.0144653
0.0313772
0.00310978
0.0143789
0.00203618
0.00542614
0.0206289
0.0175791
0.0131946
0.012468
0.00692415
0.0807651
0.00135148
0.00130937
0.0569278
0.0199783
0.00309643
0.0840946
0.0106971
0.0185608
0.00969025
0.0220387
0.0033483
0.0320353
0.00288036
0.00143873
0.0602952
0.0105303
0.0277983
0.0206008
0.0100525
0.0101563
0.00943293
0.00429105
0.00168701
0.0229874
0.012974
0.0385557
0.0169517
0.0135476
0.00199274
0.00374832
0.0165156
0.114736
0.0898526
0.00278051
0.0226567
0.00226646
0.00467191
0.0199504
0.00376611
0.0632406
0.0837001
0.0126404
0.0240875
0.00972892
0.00911566
0.115036
0.0246753
0.0271713
0.00468114
0.00434434
0.00201375
0.017732
0.0218152
0.0104356
0.0604511
0.00224965
0.0236567
0.0223956
0.00596851
0.0207394
0.0129303
0.00356673
0.0019849
0.00331538
0.00270834
0.00129446
0.0204966
0.00287601
0.00960574
0.0532487
0.00241031
0.0346592
0.00141322
0.00178168
0.0100575
0.0102899
0.0367391
0.00189837
0.00262751
0.0200666
0.0122572
0.00328778
0.0089283
0.0040949
0.00379565
0.063439
0.00425953
0.00176583
0.0100571
0.0260279
0.0172457
0.0856548
0.0106322
0.0233793
0.0038986
0.00126694
0.00614232
0.0685763
0.0204835
0.00227061
0.00364658
0.00346817
0.011019
0.00329731
0.0269733
0.111118
0.0339164
0.0090032
0.00995356
0.00239084
0.00369782
0.00222276
0.00395463
0.00126994
0.041702
0.00217752
0.0214681
0.0923721
0.016366
0.0200177
0.0111586
0.0225351
0.0698531
0.00834668
0.020761
0.0372038
0.0470322
0.0255523
0.0265951
0.0361986
0.0202588
0.036947
0.00224312
0.00220905
0.022412
0.00925813
0.0221881
0.00781044
0.0414473
0.00645561
0.00517653
0.00323832
0.00466655
0.0085825
0.00369671
0.00318383
0.0204298
0.00179513
0.00127547
0.0924529
0.0374139
0.0104796
0.00393711
0.00911992
0.0349918
0.00620699
0.00170863
0.00418817
0.0236839
0.0194817
0.0251414
0.00401866
0.0187067
0.0551967
0.00159724
0.00134999
0.0193805
0.010699
0.0104884
0.128302
0.0399222
0.0154027
0.0135375
0.012872
0.00623031
0.00497345
0.00491887
0.0403284
0.00433189
0.00378742
0.00462476
0.0298268
0.0148039
0.0160948
0.00802837
0.00737006
0.0103035
0.00827125
0.00682373
0.0164239
0.00603303
0.0187072
0.00927696
0.00478642
0.0125658
0.004944
0.00295162
0.00445377
0.00463022
0.02226
0.00383534
0.00382008
0.018959
0.0175446
0.00336787
0.00299417
0.00768323
0.00909052
0.0106902
0.0131978
0.0153449
0.00637567
0.0174783
0.00564342
0.0112492
0.00464518
0.00840196
0.00423885
0.00389026
0.00413064
0.00360942
0.00305279
0.00318736
0.00440879
0.00353908
0.0159027
0.00283494
0.0030584
0.00369402
0.00290871
0.0017198
0.00879667
0.00277059
0.00955541
0.0112094
0.00574186
0.00258047
0.00344464
0.00159917
0.00912734
0.00704818
0.0203464
0.00303524
0.00844322
0.00237346
0.00378491
0.00168766
0.00323661
0.0157527
0.00414213
0.0209444
0.00269752
0.0024101
0.00260742
0.0032899
0.00227609
0.00652329
0.00939458
0.0033718
0.00249578
0.018805
0.00219177
0.00260401
0.00213684
0.0717932
0.00293639
0.00371078
0.020828
0.00361969
0.0181432
0.0118946
0.00992809
0.0142234
0.0120996
0.0174576
0.00293666
0.00602417
0.00854755
0.0118991
0.00529321
0.00710793
0.00399223
0.0451477
0.00355405
0.00201164
0.0145609
0.0127313
0.0178781
0.0160056
0.00771883
0.00233583
0.0339943
0.0107306
0.00436032
0.00304034
0.00410896
0.0135902
0.00226005
0.00814199
0.00215623
0.00387084
0.00305482
0.00227447
0.00207372
0.00280501
0.00321589
0.00399172
0.00261834
0.0023356
0.00297647
0.0328492
0.0055342
0.00223133
0.00382874
0.00328586
0.00318394
0.0192105
0.00834999
0.0122471
0.0059708
0.00304833
0.00247928
0.00335245
0.00262155
0.0377138
0.0107962
0.0138817
0.00513791
0.00203479
0.0056641
0.0101151
0.00893397
0.00538945
0.00630197
0.00431967
0.00454356
0.00657408
0.00470858
0.00471949
0.0040591
0.00512844
0.00418726
0.00444787
0.00424625
0.00407434
0.00401373
0.00481367
0.00522891
0.00459191
0.00463018
0.00757245
0.00270143
0.00289292
0.0368849
0.0162573
0.00378457
0.00252604
0.0026044
0.0129913
0.0101446
0.0130644
0.00860235
0.0047033
0.00516711
0.0053157
0.00610779
0.00770964
0.00441595
0.00235338
0.00306996
0.00337341
0.00552665
0.00123075
0.0843924
0.00131116
0.0114358
0.00341311
0.0203917
0.00190369
0.00335319
0.00622178
0.00548047
0.0112846
0.00886921
0.00562003
0.0129511
0.00477968
0.00502413
0.00437104
0.00422388
0.00412728
0.00405262
0.00414908
0.00249202
0.00196199
0.00934945
0.00243102
0.00869235
0.0103402
0.0120275
0.00569555
0.0120484
0.00554897
0.00421535
0.00637448
0.00401688
0.00937432
0.00507595
0.00408719
0.0139624
0.00482505
0.00439859
0.00884523
0.00254649
0.00454367
0.0158258
0.00593262
0.00284534
0.00515281
0.00279187
0.00390926
0.00196127
0.00882162
0.0357029
0.00136242
0.00531789
0.00796525
0.00893424
0.0246092
0.0107103
0.00240502
0.00633674
0.00378687
0.00299778
0.111221
0.0183734
0.00293443
0.00258184
0.00230847
0.0204304
0.00274861
0.109091
0.00250279
0.00422281
0.00468884
0.00476259
0.00277813
0.00228021
0.00345412
0.0296696
0.00209687
0.0195198
0.00647372
0.0177088
0.00245166
0.00670327
0.00620374
0.00789295
0.00862499
0.0048285
0.00835059
0.0045347
0.010151
0.0116503
0.0142135
0.00404018
0.0095747
0.0114369
0.00595648
0.017416
0.0125226
0.00977052
0.0144838
0.00190262
0.00357226
0.00450211
0.00310855
0.00161254
0.00284304
0.00703808
0.00286498
0.00185683
0.00853464
0.0073699
0.00820718
0.0035934
0.0309102
0.00184191
0.00376237
0.00261847
0.00255382
0.00495737
0.00367783
0.0103052
0.0247436
0.0406701
0.00301915
0.00241765
0.0132698
0.0162701
0.00178379
0.0124614
0.00646167
0.00577736
0.00841983
0.0117879
0.00487085
0.0112441
0.0158642
0.0121115
0.0163512
0.0177943
0.0181754
0.00363491
0.00425793
0.00409057
0.00225042
0.00704587
0.0089261
0.00360959
0.0270989
0.00284659
0.100415
0.00338685
0.0021707
0.00961808
0.00175233
0.00348667
0.00138082
0.00416568
0.00239319
0.00204953
0.0023768
0.00328871
0.0182536
0.00975134
0.00190767
0.00600017
0.00507039
0.0216771
0.0194818
0.0358165
0.0123327
0.00198572
0.0033375
0.00249057
0.00223062
0.00331729
0.00200546
0.0269429
0.020635
0.00810081
0.0121955
0.00964219
0.0138329
0.0158832
0.0154001
0.00222804
0.022377
0.0104582
0.0131108
0.0136939
0.00819315
0.0112771
0.00450515
0.0096015
0.0026676
0.00812661
0.00572981
0.00293309
0.00489307
0.00424432
0.00373793
0.00243116
0.00272592
0.00670067
0.0217158
0.0185939
0.0019268
0.0150815
0.00198334
0.00315735
0.00353126
0.0012464
0.00695341
0.00342223
0.00322181
0.00273581
0.00444607
0.00324659
0.0239961
0.00389357
0.00174915
0.0157138
0.00344749
0.00333464
0.00678763
0.0192462
0.00589959
0.00986869
0.0490116
0.00297752
0.00755121
0.00902541
0.0130835
0.00481223
0.00181623
0.0108393
0.00782384
0.00922017
0.00769604
0.00615966
0.00541173
0.0347749
0.00463747
0.0113511
0.00212884
0.00355415
0.021492
0.0046143
0.0042062
0.050826
0.00307758
0.00385413
0.00397502
0.00274514
0.00167802
0.0021737
0.0018695
0.00269222
0.020562
0.00256105
0.00233506
0.028757
0.0017139
0.00185259
0.00179813
0.0411066
0.00345723
0.00231622
0.0212337
0.00381746
0.00291744
0.00194342
0.00337869
0.0046185
0.0175695
0.00383406
0.00224846
0.00663961
0.0136952
0.020762
0.0110133
0.00806935
0.0023253
0.00363083
0.00257978
0.00288055
0.00192735
0.02011
0.00375025
0.00236728
0.00180999
0.00511678
0.00386702
0.0245953
0.0107829
0.00202528
0.00295752
0.00247785
0.0211446
0.00389321
0.00419342
0.0136462
0.00199807
0.0106829
0.00183994
0.00152348
0.00170842
0.00573084
0.00247649
0.00444775
0.0114903
0.00190109
0.015033
0.00414848
0.00322277
0.00896615
0.00243461
0.00644959
0.00752064
0.00547168
0.0100813
0.00480923
0.00179126
0.00547838
0.00644658
0.0047465
0.00321943
0.00447126
0.00525347
0.00833438
0.00404316
0.00428239
0.0101957
0.00415309
0.00486579
0.0129829
0.00405495
0.00467492
0.0170552
0.00458488
0.00435256
0.0147753
0.0250894
0.0262106
0.00252806
0.00261875
0.0149832
0.00145209
0.00149425
0.02925
0.0125775
0.0238146
0.00398163
0.0184466
0.00284841
0.00340705
0.00912523
0.0114316
0.00208429
0.0097053
0.0268149
0.0389832
0.00212459
0.00223379
0.00182012
0.00132232
0.00165899
0.00264332
0.00211175
0.111455
0.00473316
0.00240927
0.0178876
0.00470511
0.0137622
0.00183071
0.023672
0.00368448
0.00440279
0.0329319
0.00376444
0.00523513
0.00161584
0.00286875
0.0576099
0.00164854
0.0323431
0.00826309
0.0156103
0.0152713
0.0106766
0.0228309
0.0025838
0.00322625
0.0230717
0.0026273
0.00265441
0.00298299
0.0274146
0.00170935
0.00270318
0.00393053
0.0330428
0.00456376
0.00429908
0.00319247
0.00169754
0.0172944
0.00503395
0.00586544
0.0292074
0.00122678
0.0130392
0.00312233
0.0103279
0.00158719
0.0332715
0.00408526
0.00410732
0.00188675
0.00563218
0.00787595
0.00399945
0.0107913
0.0136736
0.00410064
0.00409218
0.00166432
0.0124785
0.0114927
0.00169123
0.00478486
0.00375666
0.00530783
0.00633398
0.00764752
0.00336522
0.0071613
0.00753075
0.0247351
0.00507185
0.0286495
0.00191255
0.00720384
0.00184763
0.0029181
0.0647228
0.0249568
0.0135805
0.00179672
0.0203038
0.00365321
0.00359201
0.0272845
0.00365158
0.0420988
0.0090904
0.034209
0.00712598
0.00160863
0.103281
0.00657715
0.00620865
0.00545628
0.0238179
0.0402837
0.00182915
0.0027827
0.124518
0.0315064
0.00238337
0.032545
0.0347884
0.0031767
0.0360691
0.0025253
0.0284472
0.00351272
0.00993573
0.00294386
0.0196412
0.0339252
0.00132982
0.0978054
0.0293716
0.00223862
0.0112301
0.00291808
0.0127297
0.0202437
0.00987044
0.00218779
0.0171244
0.0277055
0.00385244
0.0309984
0.00347061
0.00213058
0.0058782
0.00625684
0.0230893
0.00164789
0.00310001
0.021808
0.00491591
0.00265161
0.00365051
0.00291462
0.00765422
0.00572053
0.0223287
0.0496214
0.0293573
0.00168011
0.00625756
0.00182948
0.00496359
0.00711231
0.00290233
0.0092967
0.00330795
0.0261004
0.0150165
0.00242075
0.00244884
0.00676046
0.0154704
0.0296164
0.0430124
0.0105694
0.00340199
0.00732929
0.00212001
0.00178139
0.00292121
0.00376977
0.0015429
0.00232612
0.0208945
0.1206
0.00386038
0.00343103
0.00490722
0.0367195
0.00252543
0.00699179
0.00396273
0.00563219
0.00273572
0.00582122
0.016825
0.0168655
0.00802658
0.00174946
0.00805525
0.0700404
0.0100494
0.00202781
0.00559621
0.0155294
0.00779032
0.00295102
0.0017041
0.00355704
0.00678577
0.00701819
0.0105639
0.00273587
0.0120314
0.00233157
0.00160891
0.0443954
0.00588763
0.0260432
0.00666811
0.00947662
0.011451
0.0062922
0.00238793
0.0208715
0.00186394
0.00362605
0.00350079
0.00514261
0.00985001
0.0075734
0.00496077
0.00771214
0.0163102
0.0100726
0.0113778
0.00309251
0.0445813
0.00167174
0.00169024
0.0169675
0.0221868
0.0092027
0.0531899
0.00669583
0.00177515
0.0142912
0.00245578
0.0265983
0.0232735
0.00173627
0.0101408
0.0391102
0.00407757
0.0381335
0.0106957
0.0219986
0.00452232
0.0302893
0.0312022
0.00264901
0.00531533
0.0434672
0.0024909
0.00271195
0.0244342
0.00145117
0.00751361
0.0311813
0.0162557
0.0877663
0.00329278
0.00204297
0.00176402
0.0591675
0.00290017
0.00491832
0.00521944
0.0136683
0.00223944
0.00384251
0.00272259
0.0119445
0.0104634
0.00156379
0.00555196
0.00144506
0.00147908
0.00335697
0.0636722
0.0143878
0.00152833
0.00178366
0.020096
0.0207027
0.00439887
0.00944571
0.00150192
0.00151272
0.0333298
0.00269602
0.016271
0.00139182
0.0100326
0.00957851
0.122922
0.0116553
0.0774275
0.051347
0.00254192
0.0314296
0.00176041
0.00239631
0.0030853
0.0206801
0.00173207
0.0122215
0.025329
0.00236186
0.00222195
0.0140597
0.0382509
0.0105964
0.0640003
0.0221517
0.0307879
0.00155977
0.0308582
0.0218391
0.00134817
0.0175612
0.00155863
0.00165122
0.043875
0.00909534
0.00902765
0.0477297
0.0412018
0.00432526
0.00929528
0.00307101
0.0197297
0.00164406
0.0354973
0.0276877
0.00314951
0.0289544
0.0018392
0.0028364
0.00155835
0.0100116
0.0134172
0.0842405
0.0352978
0.00214982
0.0426874
0.0016632
0.00188037
0.00134436
0.0177457
0.00988175
0.00161792
0.00450645
0.0494029
0.0129581
0.0098562
0.00220908
0.00980736
0.00244588
0.00208739
0.00390859
0.00390042
0.00345745
0.00244029
0.00144509
0.0976545
0.00248213
0.00371946
0.00153988
0.0079066
0.0107969
0.0271217
0.00311325
0.010474
0.0204852
0.0091638
0.00230579
0.0375229
0.0042393
0.021539
0.0116422
0.010192
0.00392036
0.00200385
0.04732
0.036122
0.00264024
0.00206718
0.0409704
0.0361488
0.0191082
0.00578178
0.0239811
0.00223375
0.0101718
0.00381017
0.0106924
0.00147043
0.00206648
0.00355936
0.0073743
0.0092907
0.00173814
0.0105163
0.0123152
0.00722069
0.00735105
0.016827
0.0248392
0.0227701
0.00184915
0.0276592
0.0273477
0.0303487
0.00379098
0.014349
0.0162817
0.0109084
0.0340445
0.00266825
0.00200817
0.0170398
0.0965835
0.00958291
0.0452129
0.00267096
0.00320475
0.00444172
0.00195744
0.0124591
0.00264194
0.00163523
0.0220109
0.014031
0.0538513
0.0438218
0.0977374
0.0487906
0.0423887
0.0180181
0.0125309
0.0273924
0.0052897
0.0268641
0.00359511
0.0177949
0.00128902
0.0677389
0.00972709
0.0033047
0.00610015
0.00446172
0.00375743
0.00327733
0.00191782
0.00699879
0.00168807
0.0343792
0.0331028
0.00377711
0.0230448
0.0210444
0.0144517
0.025565
0.132225
0.00969663
0.00945282
0.0486772
0.00969843
0.0150545
0.00328214
0.068371
0.00399546
0.0126614
0.0114722
0.00532887
0.0315533
0.0211178
0.00260264
0.0102676
0.00194674
0.0568407
0.0227026
0.00709234
0.0849131
0.00301313
0.0209246
0.00496745
0.00338649
0.0507102
0.0178103
0.00570222
0.00383943
0.00419033
0.00741538
0.00217382
0.0821666
0.00735498
0.00535602
0.0494674
0.00127625
0.00930745
0.00720256
0.00189756
0.0143323
0.0650786
0.0289986
0.0222898
0.0125029
0.0521636
0.00212762
0.0142927
0.00150238
0.00159201
0.0112256
0.00225174
0.0485725
0.0502706
0.0533743
0.014688
0.0101085
0.0271161
0.00524127
0.00329482
0.00404793
0.00347543
0.0121722
0.00317478
0.00350704
0.00574386
0.109153
0.00151398
0.0740089
0.0373054
0.00640349
0.00943514
0.0336971
0.0298787
0.00133283
0.132863
0.00445552
0.00153187
0.00148064
0.120438
0.00193681
0.00233759
0.00224596
0.0239876
0.00275038
0.00988899
0.0039231
0.00548843
0.00700505
0.00209881
0.0236666
0.00306616
0.00468523
0.0264591
0.00260123
0.00520593
0.00381927
0.0321419
0.00969694
0.0025084
0.0238504
0.0300156
0.052046
0.00261252
0.0018486
0.0715746
0.0479705
0.0665136
0.0436705
0.0628064
0.0496173
0.00259698
0.0221558
0.0461947
0.00477301
0.0107193
0.0024046
0.0095172
0.0279939
0.00904693
0.0111617
0.0578399
0.0193301
0.0025256
0.00122562
0.00133325
0.0110293
0.00987306
0.0143249
0.0228021
0.0448199
0.00519948
0.00176118
0.0485977
0.106206
0.0100321
0.00569667
0.017631
0.00212259
0.00975534
0.0299932
0.0110674
0.00955308
0.00910234
0.0127785
0.00319807
0.0834714
0.0112761
0.0664013
0.036807
0.00943577
0.00782695
0.00979468
0.0364716
0.0050207
0.012403
0.0203345
0.00459719
0.0103716
0.00561499
0.0243403
0.0111373
0.0252704
0.0480377
0.0427051
0.00598251
0.0429319
0.0991226
0.00379596
0.0450899
0.00413926
0.00502338
0.0294031
0.00161989
0.00204135
0.024037
0.00207886
0.0034733
0.00168854
0.0037144
0.0374941
0.00143311
0.0274848
0.0116779
0.0275308
0.00159474
0.00604625
0.00436554
0.0111772
0.00246949
0.0835452
0.0675101
0.0158681
0.0290816
0.0132488
0.0115515
0.0230117
0.00423501
0.0616404
0.0608224
0.0289273
0.00340732
0.00133448
0.00180159
0.0138553
0.0326799
0.00321366
0.00179811
0.00327629
0.0131249
0.00208524
0.00686209
0.00650201
0.00698123
0.0160083
0.00590446
0.0050286
0.00404469
0.0451587
0.00392229
0.0104793
0.00407681
0.00713517
0.00471822
0.00702964
0.00922049
0.0101403
0.0394028
0.0219376
0.0107084
0.00790265
0.0416639
0.00148311
0.00881427
0.00556948
0.00438773
0.00405733
0.0283511
0.0651637
0.0023937
0.0357065
0.0116796
0.0850216
0.011553
0.0505519
0.00505301
0.0101542
0.0677429
0.00458594
0.0130865
0.0645683
0.0406331
0.00122324
0.0185563
0.00202152
0.0366342
0.0225113
0.0166901
0.0020177
0.00524783
0.0407627
0.00220377
0.00872831
0.00356338
0.0304005
0.00142745
0.0230779
0.00360399
0.0627342
0.00221254
0.00291074
0.00495279
0.00624101
0.0536203
0.0262656
0.00242783
0.00428264
0.00428071
0.00124209
0.00969773
0.0031455
0.0172094
0.00912411
0.074183
0.00130563
0.00234353
0.0367067
0.0526855
0.0165708
0.128168
0.0471706
0.00373134
0.0239036
0.0623161
0.00150026
0.0557575
0.0162739
0.0231164
0.00322896
0.0532662
0.00126657
0.0397597
0.00129868
0.0511633
0.0101
0.00227041
0.0759468
0.00430087
0.0491702
0.0340793
0.00552578
0.00363048
0.0821196
0.121974
0.00554339
0.0253206
0.0503632
0.00272527
0.0144857
0.00314967
0.0106041
0.00305173
0.00294575
0.00588121
0.0605886
0.00266299
0.0409221
0.0148898
0.0019296
0.00129689
0.00133889
0.00159425
0.00380855
0.0147261
0.0184814
0.00587598
0.0337401
0.00748228
0.00218531
0.00218987
0.00167161
0.0658446
0.0372402
0.00141805
0.00596054
0.0150845
0.00424821
0.066918
0.0268257
0.00378765
0.00266692
0.00970201
0.00357756
0.00324366
0.0330546
0.0483971
0.00133478
0.0013841
0.0111005
0.0573712
0.0899781
0.00191913
0.00333621
0.110912
0.00723761
0.00274097
0.00138053
0.0387907
0.0404117
0.0966018
0.0033118
0.058018
0.0140081
0.104399
0.0535209
0.00356979
0.0273883
0.00242963
0.0141656
0.00159643
0.00287822
0.00790119
0.0109679
0.00533289
0.0149082
0.00335659
0.0045972
0.00660235
0.0384933
0.00441764
0.0685166
0.0233084
0.0282662
0.00263106
0.0802147
0.019579
0.00904309
0.0100327
0.00603389
0.0294191
0.00303303
0.0172191
0.0382989
0.00266701
0.0182618
0.00551195
0.00337887
0.00254227
0.0013511
0.00999894
0.00318703
0.00187378
0.0435211
0.123829
0.0028871
0.0488384
0.0501735
0.0755814
0.0203982
0.0283372
0.0722643
0.00144056
0.0196589
0.0132579
0.00124035
0.00517325
0.0014815
0.003377
0.00367362
0.0223211
0.00889204
0.0616024
0.00297142
0.0101835
0.00157558
0.00190841
0.00126577
0.0553583
0.0264034
0.00561291
0.00151775
0.0274501
0.00920793
0.04442
0.0345099
0.0345261
0.0265678
0.00154899
0.00164824
0.0061349
0.0014319
0.00977475
0.0017065
0.0152693
0.0374801
0.0147525
0.0587175
0.00192685
0.00301684
0.0196355
0.0274265
0.0161503
0.00819024
0.0108009
0.0113978
0.115185
0.0757587
0.0345429
0.0636013
0.0129077
0.00263601
0.00529994
0.00532981
0.0428737
0.00191529
0.00450093
0.00433094
0.0290857
0.0117056
0.0175683
0.00930261
0.0106653
0.00192203
0.0482725
0.0235257
0.0237671
0.0014864
0.127575
0.050811
0.0380909
0.00397053
0.0587639
0.01519
0.0139681
0.00122342
0.0116875
0.00543704
0.0017255
0.00621949
0.0121478
0.0132143
0.0170652
0.0923517
0.0640098
0.0016007
0.0529886
0.00134341
0.00966198
0.00624045
0.0294934
0.0015633
0.00137485
0.0636451
0.00915402
0.00156977
0.0623407
0.0217496
0.0139711
0.00162124
0.00173442
0.00990017
0.0329112
0.00252268
0.00188797
0.00343205
0.0378168
0.00246864
0.00177085
0.00736831
0.00539711
0.0474097
0.0045102
0.0236688
0.00214911
0.0103825
0.0718134
0.0150705
0.0219748
0.0097372
0.00141987
0.00367392
0.00302746
0.00234696
0.0299262
0.00378168
0.00197841
0.0520341
0.010036
0.0102004
0.0398447
0.0142131
0.00336737
0.0021359
0.00194205
0.0109206
0.0146766
0.00265881
0.0413303
0.00462342
0.0751718
0.0652788
0.0106008
0.00355162
0.0624285
0.00187941
0.00124891
0.0110262
0.108
0.00287729
0.00280054
0.0116463
0.0144475
0.00182763
0.00170162
0.018024
0.0104683
0.00121374
0.00135325
0.00897259
0.00339668
0.0346529
0.00121014
0.122125
0.0557487
0.00364327
0.0640869
0.00957331
0.0261395
0.0381945
0.054713
0.0432094
0.0579246
0.0107534
0.00447253
0.00418919
0.00127505
0.00166095
0.0096794
0.00589796
0.0393146
0.059611
0.00145636
0.00260763
0.00228524
0.00203622
0.00192754
0.00178648
0.00578976
0.00419907
0.00306453
0.00537637
0.00377531
0.00255803
0.00316655
0.00334311
0.0187538
0.0237538
0.0149052
0.0158876
0.009446
0.0323713
0.00486351
0.00887942
0.00240866
0.0103682
0.00187659
0.00911212
0.0589763
0.0131012
0.00494055
0.00245958
0.00335588
0.0443871
0.0268735
0.00972671
0.00227021
0.00440139
0.0014366
0.0403512
0.00964191
0.0104753
0.00498881
0.00294872
0.00555292
0.00480314
0.0229838
0.0132241
0.00496593
0.00215283
0.00214805
0.00355232
0.0372014
0.0183671
0.0907573
0.0142974
0.00969529
0.0321343
0.0245165
0.019822
0.0162285
0.0454264
0.0094386
0.002253
0.0678472
0.0454476
0.00988285
0.00893607
0.0155373
0.00278671
0.0103739
0.00471255
0.0118601
0.0739579
0.0142293
0.00438862
0.0065894
0.0477296
0.07614
0.00239854
0.0119346
0.0115324
0.00321311
0.00149619
0.00153994
0.00314639
0.00483554
0.00178335
0.00136068
0.113051
0.00527358
0.0457522
0.0533047
0.0111004
0.00205987
0.0201966
0.0209155
0.0176654
0.00614
0.0113143
0.00137724
0.10225
0.0290113
0.0596693
0.00328895
0.00266582
0.00197347
0.0123998
0.0156295
0.00843313
0.00282402
0.00972431
0.0338957
0.00194359
0.00285314
0.00579222
0.0733677
0.00352616
0.00423207
0.00956243
0.0115166
0.00199256
0.0770637
0.0326514
0.0934673
0.00862711
0.0225304
0.0251475
0.00214134
0.0138738
0.117412
0.0110689
0.00371104
0.01041
0.0483838
0.0159934
0.0133374
0.00964481
0.0266857
0.00191854
0.0356499
0.00394187
0.00156364
0.00267367
0.024728
0.00524615
0.0456093
0.0738619
0.0108319
0.0191384
0.0029362
0.0175039
0.00137754
0.00686897
0.0228005
0.0231342
0.00227289
0.00179051
0.045149
0.00337063
0.0560426
0.00344583
0.0569355
0.00168358
0.0276694
0.00218325
0.0489145
0.00755347
0.0213784
0.0525279
0.0262405
0.0221599
0.00305644
0.0553774
0.0229591
0.0222225
0.0175641
0.00951302
0.0166518
0.0189208
0.00183242
0.0269344
0.0397865
0.00609435
0.0469153
0.0946277
0.00207598
0.0099381
0.00382102
0.05537
0.00148922
0.00166047
0.00149164
0.0224647
0.105822
0.0274419
0.0082017
0.0159514
0.00218717
0.0047748
0.00492908
0.00451918
0.00154826
0.00502351
0.00494946
0.0052715
0.0039161
0.0606667
0.0613689
0.00229653
0.00532753
0.0300966
0.0406757
0.0175968
0.00307364
0.00138818
0.0087634
0.0203008
0.00152737
0.00121283
0.0905653
0.0158384
0.00293161
0.00416021
0.0133348
0.0165752
0.0345564
0.022864
0.0216215
0.00882376
0.00479235
0.0432777
0.0579172
0.00202044
0.0105175
0.00676893
0.00143075
0.00396878
0.00907245
0.00318746
0.0247033
0.0407803
0.00204053
0.0200777
0.0987513
0.00429878
0.0129348
0.00276232
0.0304131
0.0182454
0.00450936
0.00998021
0.0778984
0.004618
0.0048062
0.0098353
0.00447165
0.0722487
0.0459578
0.0459366
0.00676018
0.00471373
0.00227029
0.00923277
0.00283685
0.00293081
0.0057082
0.0140462
0.00244487
0.00443065
0.00566191
0.00168125
0.0395819
0.00954699
0.00908677
0.00215827
0.107494
0.00341422
0.00455361
0.00553395
0.0247497
0.00186951
0.0031746
0.0110741
0.00348548
0.00226423
0.00444318
0.0419481
0.00228039
0.0337923
0.00897229
0.00354803
0.0377961
0.0104763
0.00205087
0.0995918
0.0107216
0.0739305
0.00462024
0.0166707
0.00511509
0.022848
0.11479
0.00195386
0.0141453
0.00439622
0.0100399
0.00137652
0.00141982
0.00319273
0.00325316
0.00346481
0.00209619
0.0149322
0.00557418
0.00244021
0.00131101
0.00322988
0.0151953
0.0300795
0.0324273
0.00844352
0.00431763
0.117552
0.00156556
0.0016587
0.00399457
0.00153289
0.00155912
0.0115764
0.00403679
0.00377495
0.0187068
0.0095164
0.00881224
0.038852
0.0410761
0.00186643
0.052721
0.0100622
0.0160805
0.0223236
0.0177435
0.014231
0.0266427
0.00344302
0.0125195
0.00442106
0.0105318
0.00275214
0.0330692
0.00389922
0.00363268
0.0113686
0.0274256
0.0231354
0.0017041
0.0148224
0.0194908
0.0103449
0.00398025
0.00381063
0.00664908
0.018428
0.005825
0.118858
0.0145267
0.00309277
0.00950986
0.00268015
0.00417254
0.00724603
0.00373533
0.0361757
0.0132673
0.00195092
0.0028177
0.0303528
0.00570901
0.0481235
0.0205731
0.0209543
0.00516917
0.00253862
0.0217151
0.0671818
0.00226621
0.0025431
0.00917584
0.0024218
0.00240626
0.0173005
0.0037266
0.0478188
0.0135093
0.0499771
0.00410256
0.0153211
0.00370787
0.00235948
0.00208722
0.0247422
0.00316446
0.00343615
0.00295898
0.0111063
0.0093044
0.00280698
0.0164068
0.0533971
0.0292462
0.00269546
0.0217469
0.0825044
0.035509
0.00157305
0.0121485
0.0042391
0.0523626
0.00254579
0.00992586
0.0312392
0.0331929
0.00133268
0.00193586
0.0116296
0.0345819
0.0469632
0.00405516
0.0525117
0.00284631
0.00200655
0.0290582
0.0120084
0.00326473
0.0428224
0.00748283
0.00159427
0.00937868
0.0300372
0.00976911
0.00286814
0.00171024
0.0241565
0.00559833
0.0019162
0.0229275
0.0592342
0.0363344
0.0116086
0.00267056
0.00393237
0.0133807
0.0401592
0.0130861
0.0398738
0.067652
0.056321
0.0013346
0.00137142
0.00490539
0.00291109
0.00264683
0.0251933
0.0306382
0.00147156
0.00147588
0.00143877
0.0028428
0.0118417
0.0132279
0.0119168
0.00300387
0.00327439
0.00311618
0.0110938
0.025322
0.00959435
0.00146582
0.0381911
0.00245692
0.00478702
0.037975
0.00275521
0.0151689
0.0259246
0.00269015
0.0111838
0.00205934
0.0114628
0.00970771
0.00667838
0.05028
0.00154412
0.0225574
0.0345049
0.0120441
0.00403036
0.0682044
0.0709409
0.00152723
0.00227244
0.00944185
0.0110617
0.0042502
0.0292656
0.0583129
0.011046
0.0160926
0.0667685
0.0234316
0.00942692
0.0482124
0.0423907
0.0595911
0.044251
0.0105783
0.0401085
0.00326366
0.00316417
0.00239662
0.0120864
0.00239017