/*--------------------------------*- C++ -*----------------------------------*\
  =========                 |
  \\      /  F ield         | OpenFOAM: The Open Source CFD Toolbox
   \\    /   O peration     | Website:  https://openfoam.org
    \\  /    A nd           | Version:  10
     \\/     M anipulation  |
\*---------------------------------------------------------------------------*/
FoamFile
{
    format      ascii;
    class       volScalarField;
    location    "300";
    object      k;
}
// * * * * * * * * * * * * * * * * * * * * * * * * * * * * * * * * * * * * * //

dimensions      [0 2 -2 0 0 0 0];

internalField   nonuniform List<scalar> 
23845
(
0.0614281
0.0813338
0.0656767
0.0413452
0.079206
0.0268618
0.0782273
0.0303571
0.0353453
0.0560637
0.0527086
0.0222475
0.0448947
0.0314202
0.0870133
0.0470998
0.0391451
0.0325515
0.0476364
0.0298066
0.0613965
0.0512428
0.0627441
0.0367746
0.0555422
0.0444999
0.0728299
0.0286561
0.0177551
0.0313038
0.0451876
0.0163839
0.0819659
0.0342282
0.0224901
0.025657
0.0136579
0.022511
0.0234841
0.0346691
0.0500079
0.0321438
0.0441442
0.0314096
0.0463439
0.0417214
0.0681211
0.0443626
0.0212898
0.013571
0.027224
0.0659719
0.0177532
0.0308677
0.0157705
0.0421657
0.0829578
0.0329354
0.0654697
0.0678984
0.0236347
0.0328379
0.045962
0.0229726
0.0390085
0.042883
0.0771229
0.0476447
0.0474145
0.047094
0.0272139
0.0576006
0.0465591
0.0853471
0.0416666
0.0865298
0.0222324
0.0238175
0.0362129
0.0412083
0.0677104
0.0792818
0.084005
0.0335261
0.0667727
0.0226975
0.0796871
0.0174893
0.0384362
0.0433394
0.0242658
0.0472266
0.0195556
0.0250406
0.0328394
0.0245978
0.0385349
0.0449373
0.0406296
0.0728152
0.0407204
0.0784325
0.0756273
0.0106378
0.0195569
0.0349949
0.0282475
0.0430158
0.0784096
0.0326046
0.0486001
0.022747
0.0776823
0.0482746
0.0263618
0.0536989
0.0422407
0.0496019
0.0183025
0.0284486
0.023183
0.0198621
0.0466839
0.0411392
0.0797576
0.0447688
0.0247097
0.0136326
0.0525865
0.0693568
0.0557471
0.0706711
0.0608567
0.0289115
0.0412518
0.0684356
0.00890915
0.0220233
0.0735375
0.0240029
0.0151801
0.0310344
0.0240475
0.031287
0.0442515
0.0313347
0.0498463
0.0780295
0.0324881
0.0444137
0.0853505
0.0447309
0.0760702
0.0371487
0.0730158
0.0461969
0.0791331
0.0239165
0.0621771
0.0226752
0.0457169
0.082697
0.0324363
0.0377836
0.0503248
0.0433702
0.0267452
0.0201201
0.0285428
0.0291381
0.0271006
0.0422799
0.0376831
0.0394063
0.0397255
0.0346414
0.0463788
0.0515063
0.0425882
0.0237932
0.0723225
0.0690974
0.0847588
0.0463406
0.0438242
0.045201
0.0337945
0.0325408
0.0157999
0.0332817
0.0200291
0.0319972
0.0326175
0.029465
0.0455452
0.0342152
0.0155625
0.0163814
0.0136837
0.0489338
0.0425319
0.0342635
0.0317287
0.0692151
0.0320386
0.0323251
0.0644453
0.0256009
0.0653131
0.0356973
0.0391709
0.0185809
0.0447399
0.030694
0.0236075
0.0153278
0.0662801
0.0336205
0.0085983
0.0564125
0.045156
0.0861021
0.0146355
0.0454131
0.030214
0.0833746
0.00919246
0.0321332
0.0273194
0.0488495
0.0251726
0.0229728
0.0229954
0.0482196
0.0798988
0.0213029
0.0400544
0.0425918
0.0415692
0.043554
0.019362
0.0480617
0.0343182
0.0788944
0.0209501
0.0463217
0.0285622
0.0482737
0.0336577
0.0824999
0.0364013
0.0238443
0.0268144
0.0482784
0.0806174
0.0238617
0.0316642
0.0281348
0.0253377
0.0364695
0.0157205
0.0239249
0.0257296
0.0470337
0.046849
0.0369449
0.0355275
0.0422776
0.0527223
0.0408899
0.0236723
0.0398806
0.0269502
0.0321809
0.0474591
0.0335792
0.0276315
0.031813
0.0214384
0.0652414
0.0357727
0.0279717
0.0294698
0.0436304
0.0229819
0.0273148
0.0420305
0.0358502
0.0321456
0.0780694
0.0347176
0.0245883
0.0234801
0.0271736
0.0335142
0.0227485
0.0285456
0.0299472
0.0229752
0.0196891
0.0623965
0.0816399
0.021107
0.0413113
0.0308893
0.0428759
0.0232332
0.0270434
0.0409315
0.0136542
0.0265957
0.0774977
0.0441502
0.0273888
0.0586828
0.0145639
0.02777
0.0651079
0.0228805
0.0454271
0.0198018
0.0194157
0.0364596
0.0300776
0.0812943
0.0254431
0.0379322
0.0668285
0.032889
0.0343669
0.0722454
0.0427193
0.0260004
0.0238278
0.0320851
0.0434039
0.0488402
0.0329117
0.0320317
0.036326
0.0438696
0.0340803
0.0501202
0.0487906
0.047843
0.0195356
0.0238411
0.0260764
0.0371317
0.0790546
0.0489591
0.0555064
0.0127895
0.0280588
0.0178503
0.031929
0.0278986
0.0437211
0.0818038
0.0337046
0.0452787
0.0389119
0.048942
0.0441598
0.016672
0.0276531
0.0381056
0.025803
0.0188937
0.0439412
0.0301647
0.0227306
0.0295354
0.0221727
0.0244138
0.0251898
0.0552738
0.0448885
0.0299369
0.0390289
0.0809036
0.0241574
0.0599334
0.0479424
0.0485455
0.0230739
0.0258669
0.0356858
0.0404067
0.0338088
0.0738852
0.0303334
0.0252712
0.0214609
0.0257865
0.0205433
0.0464948
0.0445283
0.0467008
0.024031
0.0530791
0.0500856
0.0307307
0.0460371
0.0758531
0.0852231
0.0249221
0.0266681
0.0183445
0.0290612
0.0837076
0.0478846
0.0823876
0.0373936
0.0818787
0.0588633
0.0552117
0.0449637
0.0248972
0.0558063
0.0641371
0.030692
0.0344817
0.0369416
0.0275705
0.0724907
0.058152
0.0477711
0.044138
0.046591
0.0335303
0.0342543
0.0346199
0.0318114
0.0379547
0.0443496
0.0221362
0.0451605
0.0206157
0.0451797
0.0860903
0.0507772
0.0177846
0.0503727
0.0487463
0.0281261
0.0288213
0.055045
0.0250452
0.0409935
0.0360539
0.0407632
0.0439814
0.0242332
0.0459973
0.0340743
0.069906
0.0714794
0.0290187
0.0322664
0.0660097
0.0399128
0.00912082
0.0686584
0.026294
0.0247314
0.0293133
0.0234551
0.0489222
0.0784246
0.0313387
0.0265102
0.0474725
0.0267366
0.0244613
0.0765977
0.041462
0.0220006
0.0309268
0.0446949
0.0616909
0.0547254
0.0445733
0.0522328
0.040337
0.0818695
0.0235251
0.0228734
0.0717108
0.0360798
0.0429067
0.0647029
0.0250104
0.0574786
0.0314146
0.0648411
0.0440576
0.0549727
0.0402649
0.0244025
0.0761119
0.0160637
0.0386147
0.0624867
0.0342758
0.035707
0.0451274
0.0483148
0.0267043
0.0367654
0.0442971
0.0434064
0.0139333
0.0456852
0.0310072
0.0490975
0.0522219
0.0790777
0.0729598
0.0331825
0.0135249
0.033418
0.0344782
0.0291359
0.0492162
0.0764821
0.0807574
0.0242675
0.0591629
0.019684
0.021886
0.0698806
0.0708049
0.0680209
0.0449584
0.0482947
0.03089
0.0320498
0.0663358
0.0369738
0.0667311
0.0333637
0.0631973
0.0607117
0.0452426
0.0581976
0.053215
0.0428415
0.0300671
0.0429219
0.0372462
0.0227602
0.0413349
0.0377685
0.0319952
0.0796248
0.0289971
0.0415409
0.0240047
0.0281487
0.0336136
0.0375498
0.0733822
0.0280721
0.0309183
0.0239431
0.0200578
0.0447838
0.0192494
0.0482386
0.0480953
0.0761156
0.0452382
0.0283571
0.0454198
0.0714848
0.0368131
0.0682606
0.0292337
0.0683761
0.0484943
0.0224505
0.0448152
0.074041
0.0298509
0.0269114
0.0475027
0.0445511
0.0299542
0.0434263
0.0673466
0.0844162
0.0671394
0.0440458
0.0260277
0.0274344
0.0476167
0.0330204
0.0320124
0.0223094
0.0618192
0.0320486
0.0671632
0.0847071
0.0428839
0.0618237
0.0290134
0.0679391
0.0789
0.0454523
0.0619495
0.0810021
0.0800156
0.072087
0.0325781
0.0743643
0.0661814
0.0823468
0.0323504
0.0326133
0.067965
0.0243304
0.0662316
0.0443857
0.083281
0.0379889
0.0505362
0.0295235
0.0505951
0.0448339
0.0448966
0.039381
0.0596919
0.028368
0.0224671
0.0783579
0.0777453
0.0458943
0.0486944
0.0451121
0.0753117
0.0390878
0.0267414
0.048278
0.0588275
0.0630566
0.0587187
0.0483017
0.0602461
0.0595539
0.0253892
0.0233854
0.0649378
0.0365436
0.0236085
0.0784189
0.0428286
0.0543616
0.0319956
0.0529429
0.040547
0.0452804
0.0383721
0.0838748
0.0386833
0.0477445
0.0505701
0.0770882
0.0486664
0.0559129
0.0445202
0.0404133
0.0468621
0.0426503
0.0388684
0.0602293
0.0367317
0.0639607
0.0451525
0.04005
0.0505801
0.0336841
0.0349341
0.0323869
0.0397047
0.0666327
0.0419554
0.0305136
0.063396
0.0588195
0.029536
0.0343936
0.0410619
0.0445715
0.048322
0.0539539
0.0583065
0.0375905
0.0620166
0.0355712
0.0482548
0.0328006
0.0438837
0.0316776
0.0334203
0.0360298
0.0299093
0.028712
0.0288709
0.0472784
0.0387018
0.0502674
0.0395399
0.0357012
0.0389138
0.0281999
0.027859
0.0439858
0.0279425
0.0458407
0.0496397
0.0361166
0.0273246
0.0383003
0.0252304
0.0446812
0.0434546
0.0660299
0.0404909
0.0427569
0.026945
0.0315145
0.0262384
0.0378943
0.0587271
0.0343896
0.066895
0.0282873
0.0350119
0.0354875
0.0440922
0.0269445
0.0417686
0.0283163
0.0438217
0.0279828
0.0640327
0.0266298
0.0348623
0.030832
0.0753341
0.0353951
0.047902
0.0647859
0.0388826
0.0363743
0.0490548
0.0462546
0.0561073
0.0516023
0.0615779
0.0342536
0.0366015
0.0437408
0.0510531
0.0346081
0.0448551
0.0309236
0.0844073
0.0299062
0.0261856
0.0567241
0.0528175
0.0621963
0.0460618
0.0431249
0.0328962
0.0808094
0.0490581
0.037085
0.0284732
0.0312838
0.0260282
0.0340405
0.0432318
0.0269568
0.0448017
0.030258
0.0277531
0.0264887
0.0279082
0.0368881
0.0357308
0.0311726
0.0269938
0.0354623
0.0749331
0.0360543
0.031029
0.0321133
0.0306375
0.037543
0.0640587
0.0449429
0.0517541
0.0416264
0.0347125
0.0342466
0.0379295
0.0321364
0.0776652
0.0467999
0.0548963
0.0419131
0.0266128
0.0357975
0.0206611
0.0457762
0.0491394
0.0465962
0.051748
0.0515327
0.0450053
0.0506162
0.0511365
0.0510947
0.0507231
0.0515543
0.0501289
0.051649
0.0509163
0.0509518
0.050789
0.0503158
0.0505856
0.0513685
0.0444659
0.0293087
0.0285248
0.0564517
0.0596841
0.0478717
0.0368056
0.0315069
0.0502371
0.0470816
0.0532098
0.0433552
0.0376214
0.0500017
0.0493802
0.0471539
0.0458625
0.0321498
0.0332878
0.0343514
0.0410716
0.0464011
0.02189
0.0801121
0.0229659
0.0492723
0.0360172
0.0657421
0.0259177
0.039218
0.0457769
0.0493608
0.0479565
0.0453441
0.0487219
0.0499299
0.0504189
0.0508384
0.0499171
0.0493028
0.049293
0.0490357
0.0440887
0.0271246
0.0259087
0.0449363
0.033118
0.0444272
0.0458674
0.0511062
0.0482383
0.0488599
0.0490774
0.0494513
0.0453493
0.048918
0.0458139
0.0508189
0.0491416
0.0510659
0.0503473
0.0499797
0.0437363
0.035442
0.0352144
0.051051
0.0365444
0.0334773
0.0342962
0.0373164
0.0309753
0.0260493
0.0442646
0.03592
0.0235031
0.0348096
0.0419968
0.0443541
0.0714893
0.0485063
0.0296147
0.0444671
0.0310118
0.0291217
0.0834399
0.0217368
0.028699
0.0278469
0.0333213
0.0576192
0.0332059
0.0873353
0.0285581
0.0516648
0.0473925
0.0509351
0.0320917
0.0266278
0.0400413
0.0769513
0.0276098
0.0550485
0.0454058
0.0613254
0.0292114
0.0434645
0.0375577
0.0421321
0.0436936
0.0425308
0.0440766
0.0331078
0.0472286
0.0506304
0.0559226
0.0320118
0.045543
0.0494725
0.0429228
0.0590674
0.0508387
0.0458019
0.0532995
0.0259677
0.0304816
0.0397042
0.0296109
0.0251464
0.0289437
0.0430407
0.0289199
0.025701
0.0431281
0.0444589
0.042988
0.0362365
0.0698057
0.0257616
0.0418147
0.028164
0.0280388
0.0405936
0.0470958
0.0471634
0.0718149
0.0804824
0.0401102
0.0283527
0.0539688
0.0598707
0.0255861
0.0498047
0.0389568
0.0376303
0.0439742
0.0491088
0.0450837
0.0496866
0.0587725
0.0515137
0.0571998
0.0614284
0.0611797
0.0446261
0.0374773
0.0351736
0.0272627
0.044123
0.0464126
0.0413361
0.0226014
0.0384412
0.0736448
0.0426481
0.0313398
0.0139672
0.0254943
0.0462493
0.0237913
0.0494374
0.0294347
0.026178
0.0310614
0.0378511
0.0630225
0.0237552
0.0257956
0.0374987
0.0441101
0.0643201
0.059664
0.0767029
0.0513719
0.0266022
0.0359653
0.0274665
0.0322127
0.0444151
0.0306799
0.0729271
0.0667443
0.0460305
0.0502149
0.0473242
0.0522251
0.0546891
0.0581494
0.0265328
0.0689848
0.0466786
0.0507358
0.0548627
0.0439006
0.0495962
0.0370902
0.0458163
0.0275538
0.0421274
0.0358283
0.0282744
0.0335317
0.0316944
0.0304608
0.0270201
0.033584
0.0390522
0.0612429
0.063544
0.0264488
0.0524142
0.0275177
0.0413228
0.0325402
0.0220505
0.039465
0.0304928
0.0352645
0.0285296
0.0444258
0.0377098
0.0697478
0.0478154
0.0255777
0.0509863
0.0356035
0.0444169
0.0386519
0.0635995
0.0420274
0.0209602
0.064198
0.0361693
0.0433505
0.044862
0.0531178
0.036272
0.0257103
0.048395
0.0448864
0.0446585
0.040988
0.0370334
0.0351009
0.0315005
0.0329051
0.0471042
0.0273462
0.0298987
0.0635594
0.0444979
0.0385328
0.0477736
0.0290604
0.04994
0.0482283
0.0280198
0.0259176
0.026493
0.0260667
0.036916
0.0661317
0.0274608
0.0268176
0.0672796
0.0254038
0.0261605
0.026273
0.0772953
0.0396929
0.0307279
0.0675687
0.0459908
0.0405983
0.0259948
0.0399997
0.0475668
0.0401856
0.0459239
0.0282852
0.0429865
0.0536735
0.0665985
0.0484768
0.0418659
0.0323893
0.0311749
0.0285641
0.0297932
0.0274942
0.0659485
0.0331848
0.0340002
0.0263323
0.0346177
0.0355563
0.0557777
0.0337819
0.0288508
0.0361872
0.034975
0.0644451
0.0380762
0.0494829
0.0543816
0.0260748
0.0387793
0.0265715
0.0256081
0.0255099
0.0422989
0.0307806
0.0471162
0.0503988
0.0277803
0.0552333
0.0378075
0.0425351
0.0452807
0.0313385
0.0419594
0.043879
0.0424735
0.0480385
0.0368273
0.0258215
0.0384059
0.0377426
0.0505615
0.02901
0.0466578
0.0495879
0.0463162
0.0510777
0.0516885
0.0478832
0.0514287
0.0506096
0.0511696
0.0509303
0.051262
0.056035
0.0514398
0.0517343
0.053369
0.072
0.0696846
0.0364801
0.0354682
0.0524591
0.0247511
0.0244904
0.0749958
0.050861
0.0686459
0.0380554
0.0545467
0.0355962
0.0322441
0.0447409
0.049674
0.0297986
0.0458266
0.0686483
0.0312981
0.0305388
0.0277759
0.0267025
0.0231225
0.0251765
0.0278006
0.0263643
0.0871605
0.0333138
0.0270774
0.0626541
0.0423304
0.0550055
0.0262667
0.0605823
0.0415711
0.0413623
0.0761843
0.0427151
0.0358926
0.0249898
0.0372094
0.055614
0.0252249
0.0728389
0.0442451
0.0581262
0.0392854
0.0380442
0.0692769
0.0339054
0.0412348
0.0651212
0.0340046
0.0339699
0.0376734
0.0636282
0.027201
0.0374268
0.0449094
0.0776677
0.0478907
0.041373
0.029325
0.0258915
0.0251759
0.0409436
0.0414049
0.071873
0.0219053
0.010764
0.0396992
0.0217592
0.0248867
0.0753083
0.0381737
0.0387673
0.0273711
0.0414178
0.0439765
0.0396689
0.049137
0.0531472
0.0464924
0.0399108
0.0259676
0.0513115
0.0498346
0.0275769
0.0386568
0.0354807
0.0399276
0.0430703
0.0421729
0.0292945
0.042677
0.0425313
0.0615609
0.0372841
0.0713332
0.0299347
0.0397808
0.0262859
0.0379497
0.0660425
0.0673953
0.0521906
0.0287936
0.0611314
0.0353868
0.0382461
0.0699718
0.0380816
0.0738416
0.0232523
0.0804635
0.0415548
0.0266015
0.0779362
0.0412096
0.0410911
0.0406733
0.0649877
0.077367
0.0278395
0.0355006
0.0875154
0.0607452
0.0332917
0.0778794
0.0782443
0.0380611
0.0436271
0.0315097
0.0655338
0.032941
0.0464074
0.0413841
0.0592311
0.0691329
0.0231538
0.0827647
0.0679138
0.0337197
0.0299152
0.0372701
0.048155
0.0556616
0.0350128
0.0324438
0.0570394
0.0640123
0.033301
0.0733703
0.0352872
0.0266281
0.0393186
0.042875
0.0618877
0.0252183
0.0418293
0.0668081
0.0422923
0.0334901
0.0318154
0.0396316
0.0416014
0.0393384
0.0618085
0.0745634
0.0718288
0.0253675
0.0400403
0.0278817
0.0387929
0.0408081
0.031009
0.0258917
0.0441543
0.0656037
0.0121429
0.0340228
0.0351566
0.0424628
0.0553628
0.0699326
0.0795565
0.0482366
0.0296324
0.0400457
0.0323419
0.027152
0.0375125
0.0480938
0.0249121
0.0293342
0.0572621
0.0783456
0.0410657
0.0410556
0.0405052
0.0709891
0.0320083
0.0420677
0.0351713
0.037829
0.0293256
0.0402405
0.0598367
0.0590707
0.0430359
0.0270966
0.0422728
0.079811
0.0273868
0.0266113
0.0400235
0.0568464
0.0430157
0.0391494
0.0253836
0.0353036
0.043771
0.04153
0.0158379
0.038425
0.0293712
0.0303379
0.0251852
0.0724264
0.0403754
0.0733679
0.0403314
0.0470934
0.050202
0.0445257
0.0340497
0.0594703
0.0279985
0.033057
0.03103
0.0392384
0.0350438
0.0414752
0.0428873
0.0410812
0.053563
0.028759
0.0500914
0.0413644
0.0780166
0.0256883
0.0268973
0.0591729
0.062747
0.0228753
0.0458127
0.0385595
0.0262896
0.0548008
0.0354088
0.0644664
0.0653649
0.0266484
0.0479654
0.0808002
0.0423137
0.0712539
0.0487557
0.0673505
0.0413969
0.0644271
0.0775764
0.0371491
0.0418115
0.0565333
0.0349206
0.0383327
0.0638755
0.0242938
0.0450924
0.0783313
0.0529736
0.0687845
0.0438955
0.0315387
0.0281638
0.053095
0.0398473
0.0508047
0.0438411
0.0388412
0.0306785
0.0457675
0.0383044
0.0361807
0.047576
0.0248881
0.0415282
0.02432
0.0247728
0.0444935
0.0790096
0.0557607
0.0246566
0.0268806
0.059486
0.0656343
0.0482604
0.0470527
0.0244786
0.0252605
0.0497284
0.0365356
0.0574967
0.0238357
0.0478109
0.0315671
0.0835882
0.0176565
0.0795933
0.0771521
0.0367094
0.0741821
0.0263893
0.0348901
0.0306183
0.0604961
0.0260515
0.0293752
0.0319244
0.0299606
0.0287023
0.0462809
0.00260814
0.0471412
0.0792767
0.0679967
0.0704902
0.0247978
0.0759991
0.00177924
0.0233207
0.0500539
0.0258556
0.0269127
0.0834612
0.0171858
0.0265417
0.0810747
0.0783441
0.0473888
0.0130181
0.0380769
0.0568509
0.0265089
0.0700594
0.0718462
0.0427209
0.0726851
0.0286983
0.0386601
0.025746
0.0163677
0.0444626
0.0813071
0.0510263
0.0291359
0.0779123
0.0271402
0.0296508
0.0233542
0.0573948
0.0308545
0.026517
0.042351
0.0820916
0.0275423
0.0467063
0.033039
0.034504
0.0332199
0.0266954
0.0420324
0.0502792
0.0390139
0.0357919
0.0241938
0.0860849
0.0317878
0.034634
0.0247388
0.0439152
0.0377952
0.0731445
0.042349
0.0361467
0.0599059
0.046899
0.0340065
0.0382204
0.0492482
0.00176452
0.0376397
0.0337318
0.0367284
0.0267177
0.0749758
0.068969
0.0376876
0.0285034
0.0784583
0.0775059
0.0576874
0.0477415
0.00191071
0.0286933
0.026988
0.0344214
0.0228068
0.0243187
0.0289539
0.0319776
0.0416444
0.0191804
0.0279596
0.0378318
0.018577
0.040572
0.0435325
0.0542972
0.00221654
0.0670027
0.0290773
0.0744786
0.0727962
0.0659249
0.0481744
0.043382
0.0536728
0.039001
0.00316016
0.0379682
0.0306979
0.0554476
0.0839028
0.0460858
0.0772905
0.0385107
0.0414091
0.04536
0.0264499
0.0288031
0.0351108
0.0268064
0.0604205
0.0514198
0.0778439
0.0758998
0.0764668
0.0631947
0.0810177
0.0200272
0.0429521
0.0748357
0.0463336
0.00243088
0.0471438
0.0471632
0.0227332
0.0541488
0.0217384
0.0296718
0.0374406
0.0516398
0.036036
0.0307607
0.029808
0.0392402
0.0272406
0.0662404
0.0776141
0.0448256
0.0697941
0.0652639
0.0455234
0.00185025
0.0865934
0.0328739
0.0229279
0.0782018
0.0173281
0.0570144
0.0447842
0.0521827
0.0488977
0.0284771
0.0493306
0.0495485
0.00285742
0.0661262
0.0374039
0.0363979
0.0268043
0.0750428
0.0592175
0.0459214
0.0847903
0.0307385
0.0563359
0.050811
0.0309296
0.0810559
0.0126304
0.0445151
0.0478263
0.0470707
0.0425373
0.0285055
0.0682251
0.0403681
0.044237
0.0790214
0.0224286
0.0289924
0.0438269
0.0296906
0.0515259
0.0632988
0.0026346
0.0448348
0.0354192
0.0788762
0.0322372
0.0470758
0.0252536
0.0262279
0.040053
0.0338279
0.0580012
0.0797079
0.0800076
0.0402275
0.0476211
0.0597865
0.0368411
0.0415924
0.0338127
0.0424747
0.0406204
0.0306222
0.0413607
0.0441009
0.0871473
0.0253144
0.0836051
0.00359453
0.0379835
0.0135187
0.00319865
0.0667156
0.0231963
0.0827391
0.0482171
0.0256893
0.0248087
0.0855046
0.0271884
0.0347847
0.0328203
0.0620804
0.0347673
0.0342668
0.0379346
0.0358543
0.0455048
0.0315832
0.0628537
0.0377058
0.0474634
0.0708547
0.0377612
0.0350103
0.0447679
0.00285324
0.0469938
0.036656
0.028922
0.071095
0.0814137
0.0337411
0.0291278
0.0800365
0.074474
0.0767947
0.0742633
0.0771055
0.0710481
0.0375446
0.050334
0.0723982
0.0449958
0.0358014
0.0353735
0.0245934
0.0353255
0.0214188
0.0484851
0.0742855
0.0150531
0.0366507
0.0218572
0.0232194
0.0308723
0.0355878
0.0232788
0.00201304
0.0698253
0.0441849
0.0281671
0.0782753
0.0735958
0.036484
0.0478806
0.0550993
0.0283003
0.0289009
0.0317788
0.0355078
0.0289656
0.024718
0.0408829
0.0386064
0.08308
0.0378203
0.0510244
0.0685791
0.0272663
0.0455381
0.0332241
0.0394678
0.0477284
0.0291191
0.0542438
0.044962
0.0307436
0.0463028
0.00211601
0.031037
0.0668506
0.0817559
0.00440249
0.0467003
0.0797631
0.0790349
0.0460048
0.0750855
0.0482486
0.0371486
0.0753127
0.0264436
0.0276889
0.0698918
0.031867
0.0415431
0.0274104
0.0476967
0.0660964
0.024421
0.0671904
0.00987632
0.0500038
0.0264289
0.0468473
0.0473342
0.0311377
0.0359846
0.0720378
0.0797589
0.0581751
0.0591861
0.0395866
0.0293493
0.0685423
0.0435494
0.0801861
0.00723685
0.0423222
0.0328229
0.0232245
0.0288394
0.0529151
0.0729791
0.0402325
0.0287106
0.0403875
0.03641
0.032048
0.0460097
0.0446163
0.0397292
0.0370889
0.0458612
0.0474171
0.0463279
0.069155
0.0409971
0.0324943
0.0315111
0.0452143
0.0338116
0.0445836
0.0266014
0.0258809
0.00403755
0.0018707
0.0487234
0.0457329
0.0657767
0.02485
0.0227752
0.0432192
0.0517183
0.0451166
0.0727094
0.0826019
0.0355216
0.0782705
0.00942707
0.0730214
0.0179689
0.0749595
0.0503288
0.0304097
0.0552027
0.0349034
0.0488436
0.00588463
0.0810897
0.0217936
0.0471056
0.0311971
0.071823
0.0578531
0.0477822
0.031185
0.0465959
0.0672156
0.0297678
0.0465452
0.0344422
0.0669513
0.024382
0.0510208
0.0451091
0.0790943
0.0333741
0.041043
0.044494
0.0455504
0.0744528
0.055129
0.0325249
0.0415873
0.0363051
0.0219956
0.0471137
0.0343968
0.0216291
0.0129438
0.0788806
0.0227605
0.034921
0.00352814
0.00436638
0.0231403
0.0826196
0.0746697
0.0428613
0.0595707
0.0757213
0.0245414
0.0782452
0.0590552
0.0653851
0.0328368
0.0723462
0.0222708
0.00379915
0.0228783
0.0513718
0.0333519
0.0341881
0.0825884
0.0478917
0.0456516
0.0725861
0.0464457
0.0452641
0.0835296
0.0793142
0.0447175
0.00242547
0.0831763
0.0387004
0.0280279
0.032903
0.0296924
0.0393285
0.0402545
0.0380217
0.00451367
0.0332525
0.0594337
0.0548966
0.0302383
0.0226215
0.0233701
0.0263353
0.0380643
0.0370134
0.0575954
0.0472151
0.0708039
0.0453234
0.0309655
0.0289923
0.027222
0.0796112
0.080094
0.0241461
0.0441157
0.0557936
0.0320199
0.0617271
0.0734342
0.0476097
0.0358051
0.0328439
0.0452001
0.039331
0.0519407
0.0745479
0.0230694
0.0239164
0.0167865
0.00450944
0.0645575
0.0301664
0.0451906
0.0711539
0.0432791
0.039231
0.0236155
0.0661055
0.080635
0.0779406
0.0327712
0.0817662
0.0459231
0.0847045
0.00467498
0.045598
0.0734061
0.0357355
0.0112863
0.0259522
0.0382112
0.0441144
0.0464273
0.0431835
0.056489
0.0443816
0.0423224
0.0392008
0.0605121
0.0440053
0.0769263
0.00210568
0.0606367
0.0366591
0.00443549
0.0569034
0.0230947
0.0249246
0.0423216
0.0743405
0.0416555
0.0538606
0.067417
0.0381594
0.0427468
0.0382871
0.0439544
0.0358182
0.0234953
0.0301853
0.0358746
0.0286566
0.00415441
0.0873865
0.0408486
0.0720573
0.00467502
0.0784781
0.0509429
0.0026329
0.0629858
0.0246239
0.0575887
0.0505006
0.0221359
0.0486016
0.0245502
0.045417
0.0426055
0.0631316
0.0241833
0.00542881
0.0405991
0.0302949
0.0260958
0.0298843
0.0224646
0.0769566
0.00240131
0.048184
0.0248988
0.0495476
0.0273358
0.0368702
0.0642786
0.0781526
0.06467
0.0256245
0.027052
0.0426445
0.0242279
0.031875
0.0275385
0.0510335
0.0683208
0.011702
0.0050371
0.0295289
0.041681
0.0557826
0.0533701
0.0418215
0.0439872
0.0485498
0.0266477
0.081778
0.0815887
0.0442514
0.00545809
0.0280387
0.0377358
0.0380553
0.0443427
0.0449329
0.0301248
0.0515839
0.0407157
0.0628139
0.0488276
0.0499162
0.0296643
0.0311897
0.0302144
0.0712166
0.0605271
0.0022519
0.024874
0.0849691
0.0734051
0.0355104
0.0488333
0.080945
0.0473405
0.016105
0.0219087
0.0471909
0.0462124
0.0277127
0.0387946
0.00863363
0.0530416
0.0152321
0.0823
0.0478125
0.0262811
0.0553155
0.0233704
0.0309523
0.0463408
0.0615818
0.0257775
0.0237101
0.00458041
0.0247397
0.0261276
0.00378105
0.0586528
0.0548258
0.0265003
0.0280553
0.0315907
0.00272737
0.0369597
0.0297444
0.0448666
0.0743357
0.0354177
0.0283378
0.0458628
0.0491734
0.00446914
0.048106
0.00206845
0.0326434
0.01452
0.0585693
0.0523317
0.0571096
0.0142415
0.0243625
0.0476218
0.0412472
0.0347324
0.00307858
0.0423214
0.0296982
0.0810046
0.0278952
0.0319745
0.0823484
0.0171423
0.0420578
0.0325318
0.0286187
0.032944
0.0384126
0.0381742
0.0559895
0.0387377
0.0796618
0.0812382
0.00839911
0.041281
0.0801676
0.0296175
0.0221811
0.00904199
0.0710131
0.0364987
0.0395812
0.0375162
0.0450746
0.0291241
0.0274646
0.0516185
0.0332909
0.0217657
0.0234176
0.0186846
0.0353977
0.0680728
0.0216926
0.0750097
0.00398828
0.0452448
0.00503957
0.0306628
0.0704491
0.0650928
0.0770071
0.0724006
0.0738279
0.0481021
0.0387407
0.0406113
0.0225637
0.0268372
0.032304
0.0443609
0.0483688
0.00429641
0.0245693
0.0378418
0.0340768
0.031447
0.0302488
0.0284722
0.0366963
0.0439392
0.0423691
0.0398641
0.0476804
0.0371303
0.0394887
0.0442201
0.060955
0.0697506
0.0189654
0.0360401
0.0285372
0.054817
0.045078
0.0160187
0.0355875
0.00846303
0.0295291
0.0465448
0.0790235
0.0426221
0.0476905
0.03626
0.0358112
0.0352625
0.0724095
0.0337014
0.0339628
0.0400261
0.0245403
0.0684744
0.029672
0.0457475
0.0504511
0.0388656
0.0370648
0.0427641
0.0570878
0.0506088
0.0477507
0.0327067
0.032553
0.0416078
0.0688441
0.0143858
0.0609242
0.0495854
0.0201543
0.0632457
0.0429242
0.0569476
0.0477708
0.06602
0.0139788
0.0330626
0.0652586
0.0708342
0.024532
0.0127616
0.0487459
0.0383838
0.0339515
0.0433679
0.00955015
0.0810244
0.0112979
0.0449491
0.0456782
0.0804851
0.070885
0.0353962
0.0295084
0.0400439
0.0382305
0.0252532
0.0254831
0.0432547
0.0478086
0.0277847
0.0235362
0.083939
0.0362725
0.0741068
0.0800897
0.0167342
0.031744
0.0523276
0.053626
0.0192065
0.0439037
0.0390917
0.0236676
0.0700678
0.0618784
0.0744932
0.043955
0.038426
0.0306456
0.0101347
0.0424536
0.044296
0.0399794
0.028356
0.0663747
0.030352
0.0402072
0.0475603
0.072588
0.044905
0.0422364
0.0284866
0.0394506
0.0281853
0.0760872
0.0722083
0.0792119
0.046119
0.0236725
0.049414
0.0326472
0.0503505
0.0878164
0.0392343
0.0365292
0.00863039
0.0760376
0.0129123
0.0407852
0.0328659
0.0624582
0.0301757
0.0478327
0.0505518
0.0260979
0.0373938
0.0693934
0.0377028
0.0410589
0.0817627
0.0320444
0.056628
0.0412419
0.0509334
0.023644
0.0439561
0.00196292
0.0546639
0.0339813
0.0287273
0.0768233
0.0448185
0.0639636
0.0460058
0.0610793
0.0270607
0.0474477
0.032991
0.0655399
0.0437306
0.0647769
0.0689592
0.027311
0.0148233
0.0421963
0.0439087
0.0593646
0.0483614
0.054101
0.0467472
0.0519176
0.058247
0.0290044
0.0694593
0.069861
0.0462044
0.0755254
0.0698469
0.0318042
0.0305816
0.0446185
0.0764318
0.0247673
0.0272281
0.0249189
0.065463
0.0834382
0.0416051
0.0457886
0.0533596
0.0331028
0.0406261
0.0505636
0.0443447
0.0257717
0.0356445
0.0343297
0.0423078
0.048335
0.0771464
0.00392969
0.0342477
0.0467648
0.0635267
0.046854
0.0568214
0.042117
0.0239669
0.0213662
0.0622227
0.0247404
0.0216987
0.061957
0.057468
0.0404501
0.042388
0.0485547
0.00592016
0.0604717
0.0674041
0.00179444
0.0176447
0.0352012
0.0752092
0.0588929
0.0304352
0.0323053
0.0447033
0.0241955
0.0458594
0.018149
0.0410684
0.0574213
0.0702206
0.0294015
0.0627985
0.0703835
0.0475405
0.019174
0.0364401
0.0654199
0.0530593
0.033421
0.0348115
0.0836779
0.0366838
0.0455801
0.0347641
0.0433474
0.0823162
0.0402419
0.0514081
0.0452894
0.0449713
0.0317048
0.0279102
0.0402774
0.041043
0.0432798
0.0514767
0.0326722
0.0324413
0.043804
0.0274676
0.0698294
0.0306528
0.0464625
0.0327705
0.0833364
0.0417519
0.0505413
0.0485136
0.0175876
0.0275076
0.0399371
0.0212163
0.0429782
0.0312906
0.036519
0.0708382
0.0309923
0.0702364
0.0249453
0.0385339
0.0545924
0.0480043
0.0276782
0.0810838
0.0309715
0.0559094
0.0473812
0.0517143
0.0501573
0.00201239
0.0878094
0.028179
0.0514451
0.0345978
0.0311755
0.023548
0.0240897
0.0390162
0.0420797
0.0440231
0.0291215
0.0229773
0.0424752
0.0356804
0.023021
0.0415889
0.0120384
0.0618054
0.00425642
0.0458649
0.0330303
0.0835137
0.0256821
0.0270613
0.0450411
0.0252636
0.0256661
0.0471209
0.0451434
0.0415033
0.0535692
0.0297829
0.0202757
0.00218758
0.076125
0.0294747
0.00370835
0.015007
0.0535979
0.0159226
0.01852
0.0244728
0.0595739
0.0440587
0.0211524
0.0516563
0.0319489
0.038916
0.0770996
0.0393782
0.0429182
0.0302647
0.0653775
0.0176528
0.0275433
0.0567561
0.0630986
0.0456398
0.0507847
0.0412234
0.0461411
0.0447934
0.0456809
0.0815366
0.055482
0.0331005
0.0304238
0.0383111
0.0481728
0.0445061
0.0456549
0.0757481
0.010358
0.0303538
0.0346978
0.0640271
0.0460531
0.0794657
0.0476336
0.0586664
0.0460159
0.0367263
0.0554089
0.0762994
0.0339501
0.0368768
0.0252135
0.0356064
0.0345652
0.0548055
0.0380534
0.0456721
0.0519307
0.0775135
0.0405012
0.0572125
0.0477692
0.0349728
0.0318752
0.0608007
0.0430811
0.0451962
0.0408675
0.0380574
0.0284909
0.0394053
0.0524416
0.0757107
0.0634315
0.0385042
0.0466467
0.0840851
0.0374484
0.0253082
0.0261357
0.0483132
0.0719806
0.0369164
0.0352168
0.0300583
0.0436638
0.0230286
0.0277858
0.0353821
0.00608143
0.00558695
0.044282
0.0461407
0.0400381
0.0310786
0.0447168
0.0391461
0.0415291
0.0769745
0.0435742
0.0264542
0.0226484
0.0280246
0.0341902
0.0400137
0.0277862
0.0636896
0.0432363
0.0301279
0.0648107
0.070248
0.0552246
0.03391
0.0380571
0.04606
0.0328164
0.0692929
0.0377094
0.0786041
0.080702
0.076342
0.0230823
0.0235567
0.0479277
0.0406844
0.0373917
0.0162597
0.0644483
0.0248616
0.0245745
0.0244519
0.0399981
0.0476881
0.0106777
0.0324517
0.0415637
0.0437834
0.0423464
0.00849694
0.0621227
0.0314411
0.0248801
0.067495
0.032186
0.047718
0.0742307
0.0357882
0.0212889
0.0660995
0.0385979
0.0310001
0.0315892
0.0245635
0.0268797
0.0440943
0.0719099
0.0258337
0.060659
0.0385669
0.0414735
0.044552
0.0822923
0.0793986
0.0256678
0.0339363
0.0259913
0.00941189
0.0428412
0.0639897
0.0770255
0.0481409
0.0129899
0.0777288
0.0156992
0.0263665
0.0547125
0.0505116
0.0780132
0.0797996
0.0301688
0.0702099
0.0442702
0.0414577
0.0352863
0.0372765
0.0352596
0.0811852
0.0150818
0.0292213
0.0328518
0.046489
0.0447702
0.0340732
0.0346497
0.0522959
0.0354661
0.0581488
0.0507419
0.035593
0.035238
0.0397277
0.0326225
0.0477002
0.0284642
0.0244688
0.04264
0.0121235
0.0234966
0.0166619
0.0226345
0.0342188
0.0236434
0.0415704
0.0365198
0.0323142
0.0652948
0.0803353
0.035919
0.0240972
0.0456089
0.046181
0.0616309
0.0257591
0.0251324
0.0451946
0.0238362
0.0750217
0.0266172
0.0239177
0.0284788
0.0339998
0.0478536
0.0320031
0.0673365
0.072736
0.0442985
0.0273206
0.0754818
0.0459969
0.0731508
0.0730686
0.0450962
0.0719542
0.0751863
0.055248
0.045581
0.0169539
0.0468078
0.0451554
0.0454996
0.0656293
0.0261805
0.0522159
0.0777422
0.0656586
0.0464061
0.025304
0.0295321
0.042153
0.0250476
0.0756063
0.0230215
0.0404595
0.0722683
0.0453591
0.0782851
0.0789199
0.0293688
0.0145979
0.0299945
0.0554999
0.074221
0.0474553
0.0479055
0.0430194
0.108683
0.144666
0.16079
0.166563
0.16633
0.161988
0.15504
0.146559
0.137316
0.12786
0.118571
0.10969
0.101368
0.0936755
0.0866083
0.0801406
0.0742222
0.0687888
0.0637684
0.0590764
0.107781
0.143388
0.159456
0.165281
0.165162
0.160962
0.154169
0.145845
0.136751
0.127433
0.118268
0.1095
0.101274
0.093663
0.0866662
0.0802527
0.0743699
0.0689511
0.0639196
0.0591857
0.106818
0.142078
0.158082
0.163975
0.163973
0.159924
0.153294
0.145131
0.13619
0.127011
0.11797
0.109311
0.101178
0.0936454
0.0867132
0.0803474
0.0744944
0.0690859
0.0640443
0.0592851
0.105802
0.140727
0.156674
0.162646
0.162766