/*--------------------------------*- C++ -*----------------------------------*\
  =========                 |
  \\      /  F ield         | OpenFOAM: The Open Source CFD Toolbox
   \\    /   O peration     | Website:  https://openfoam.org
    \\  /    A nd           | Version:  10
     \\/     M anipulation  |
\*---------------------------------------------------------------------------*/
FoamFile
{
    format      ascii;
    class       volScalarField;
    location    "300";
    object      nut;
}
// * * * * * * * * * * * * * * * * * * * * * * * * * * * * * * * * * * * * * //

dimensions      [0 2 -1 0 0 0 0];

internalField   nonuniform List<scalar> 
23845
(
0.0127455
0.0129322
0.00700167
0.0123978
0.0164286
0.0398515
0.00876643
0.00883223
0.0468012
0.0151607
0.0185883
0.0355772
0.0485188
0.0436936
0.00661117
0.0201008
0.0363537
0.023075
0.0428972
0.0396441
0.0129805
0.0190726
0.0143121
0.04808
0.0168846
0.0548119
0.0107472
0.0400435
0.00314174
0.0414594
0.0132137
0.0011544
0.00498213
0.0250053
0.0357649
0.0371765
0.000982374
0.0358361
0.0367876
0.0466524
0.0426614
0.0317144
0.0471622
0.0291969
0.0546724
0.0454961
0.0169702
0.0200855
0.00206191
0.00177757
0.00522248
0.00885661
0.00117755
0.0428372
0.00111103
0.0400937
0.0133118
0.00991777
0.0125007
0.0126675
0.00548561
0.0298852
0.0228481
0.00386979
0.0497817
0.0478867
0.0107252
0.0562066
0.0552457
0.0391041
0.00733506
0.00721905
0.0554336
0.00728712
0.0517141
0.00671565
0.0356023
0.0371492
0.0117156
0.0297832
0.0121636
0.00736228
0.0131941
0.0101601
0.00624554
0.0359102
0.00852363
0.00108909
0.0492454
0.0331872
0.00428389
0.033994
0.00339792
0.0368979
0.00958087
0.00499996
0.0384362
0.0188907
0.0507427
0.0173671
0.0368586
0.0102768
0.014704
0.000793749
0.00270847
0.0107067
0.041031
0.0525953
0.0120178
0.0315944
0.0188804
0.036101
0.00640829
0.0162492
0.0374453
0.0143696
0.0517175
0.0178237
0.00331215
0.00613753
0.0365288
0.00233567
0.0361682
0.007252
0.00989897
0.0549212
0.0060572
0.00178651
0.00599054
0.015717
0.00447624
0.0176034
0.0186004
0.0416014
0.0329808
0.0136842
0.000660845
0.0353705
0.0118941
0.0372744
0.00206515
0.0315719
0.03706
0.0272355
0.0270478
0.0310864
0.0158487
0.00697092
0.00487255
0.0291304
0.00562438
0.052439
0.00942717
0.0456908
0.00599574
0.0215978
0.0159673
0.0369205
0.00421431
0.00466773
0.0310578
0.00636182
0.00909862
0.0488079
0.0506493
0.0259533
0.039711
0.00267574
0.0393176
0.0298263
0.0394779
0.0118312
0.0487526
0.00818855
0.0510366
0.0109497
0.0299579
0.0194603
0.0520786
0.0369644
0.0172867
0.0177031
0.00745975
0.019194
0.0226424
0.0439001
0.0322092
0.00966036
0.00255505
0.0336966
0.00332759
0.0442548
0.0448698
0.0420289
0.0276006
0.0460414
0.0018349
0.00259587
0.000745001
0.0187499
0.0236207
0.0457078
0.00544393
0.0186111
0.00962332
0.00920756
0.00700446
0.0387207
0.0111435
0.0230859
0.0268514
0.00253984
0.0264857
0.0410618
0.00306622
0.00111391
0.0192097
0.0298575
0.000473907
0.00503245
0.0511148
0.00697903
0.00167189
0.0232895
0.0287528
0.00562382
0.000671631
0.0442887
0.0400262
0.0393375
0.0381057
0.00268912
0.036316
0.0572501
0.016698
0.0045386
0.050483
0.0130674
0.0521663
0.0110457
0.00146877
0.0165998
0.0107106
0.0173776
0.00279927
0.0217239
0.0413303
0.0558072
0.0102035
0.00641977
0.0408353
0.0368274
0.0051911
0.0517151
0.00726691
0.00433532
0.0060973
0.00651214
0.0362633
0.0477815
0.000772003
0.0367001
0.00659404
0.0191497
0.0207451
0.0485881
0.0115217
0.00609249
0.0138102
0.0127905
0.0370053
0.0115929
0.00471418
0.0444962
0.0191019
0.0457424
0.00633026
0.0439565
0.00186085
0.0148085
0.0104574
0.0406105
0.0067105
0.0268229
0.0361853
0.00516371
0.00908737
0.0466367
0.00932935
0.00639538
0.0110279
0.00344115
0.0043411
0.00619966
0.0102108
0.0360425
0.00434655
0.0424515
0.0361802
0.00361805
0.00396795
0.00574833
0.00442217
0.0131473
0.0433253
0.0133668
0.00350854
0.00488474
0.0378033
0.00166929
0.00446032
0.0103493
0.0428179
0.0397759
0.00994695
0.00197531
0.00461912
0.0191782
0.00406424
0.0503814
0.00244637
0.0026267
0.00406452
0.0400836
0.00642734
0.0381165
0.0124235
0.0153323
0.00643182
0.0218769
0.00746894
0.0259889
0.00497962
0.0365586
0.00583916
0.0126384
0.0113653
0.0225815
0.0332056
0.0118857
0.0110966
0.00440975
0.0188403
0.0577416
0.0554349
0.00135564
0.0366494
0.0056029
0.0121105
0.0054116
0.0120569
0.00461875
0.00163975
0.0060838
0.00117775
0.0441112
0.0293748
0.0537533
0.0068801
0.0104915
0.00645063
0.0500634
0.0161687
0.0299782
0.00284878
0.0405159
0.00626946
0.0373646
0.00344189
0.0543275
0.0298944
0.00375075
0.00277649
0.0352907
0.0372464
0.00482263
0.00934092
0.012046
0.0313826
0.0105879
0.00684476
0.0367187
0.0139254
0.0555972
0.0575279
0.0364314
0.038831
0.0115528
0.0222312
0.0104224
0.00987567
0.0307485
0.00326381
0.00262605
0.00401507
0.00379112
0.020372
0.0536501
0.0378274
0.0365756
0.0107959
0.0142287
0.00821167
0.0102628
0.0124201
0.00717367
0.0380727
0.00298324
0.00281674
0.00681812
0.00587383
0.0567614
0.00835567
0.00542632
0.0157092
0.00900812
0.0141459
0.0193085
0.0377057
0.0152578
0.00367272
0.0367669
0.0461572
0.0121589
0.00715744
0.0122461
0.00334972
0.0131476
0.00818571
0.00730794
0.0454057
0.0247288
0.00430056
0.0216347
0.0444833
0.0525991
0.0353306
0.0445371
0.00410584
0.00930814
0.0066232
0.00315885
0.00247749
0.00572228
0.0136309
0.00417016
0.0385351
0.015526
0.0379593
0.0109126
0.0117986
0.0485871
0.00283318
0.0369701
0.0555919
0.0047347
0.013316
0.0183361
0.0074251
0.0439154
0.0104109
0.0128383
0.000684796
0.0141221
0.0389834
0.0379948
0.0418475
0.00292525
0.0578526
0.00523835
0.0418724
0.0395337
0.0141293
0.00656726
0.00372284
0.0168291
0.0497522
0.0030296
0.0422762
0.0331336
0.0166038
0.0153329
0.0135517
0.0196939
0.0211487
0.00746901
0.0368549
0.0359618
0.00812994
0.00586425
0.0535096
0.00448045
0.00526282
0.0160198
0.00916583
0.0171695
0.0521746
0.00849
0.0506582
0.0372506
0.008647
0.00220544
0.00482759
0.0170582
0.0105183
0.0112984
0.0194302
0.0489597
0.038044
0.00529214
0.0136119
0.00439807
0.0010307
0.0138653
0.0434227
0.0578795
0.0148611
0.00490514
0.00533186
0.0356398
0.00072663
0.0443461
0.0229
0.00382956
0.057885
0.00832466
0.00701264
0.00419305
0.0130782
0.00358429
0.00472919
0.00382051
0.0182855
0.0153256
0.038861
0.0483191
0.0426453
0.00521357
0.0181542
0.01179
0.00662972
0.0445323
0.0151945
0.0148124
0.0308653
0.0146979
0.0197107
0.0463129
0.0409907
0.0500111
0.0461002
0.0360169
0.00750228
0.0446386
0.00959137
0.0107159
0.0313963
0.004481
0.0366965
0.0400249
0.0101107
0.0123324
0.0131916
0.0373604
0.0327439
0.00257115
0.00295405
0.0549011
0.00373516
0.0511432
0.0548481
0.00821927
0.0432405
0.0409845
0.0184612
0.0176698
0.00707239
0.00489589
0.00723412
0.0179978
0.0542895
0.0358047
0.029428
0.0071947
0.00391521
0.0287059
0.0556922
0.0515062
0.00732852
0.0514741
0.0151335
0.00577179
0.0119615
0.0193934
0.00612543
0.0283324
0.0551842
0.0441483
0.0233225
0.0352724
0.0082477
0.0424519
0.0189108
0.00699103
0.0101132
0.0171846
0.00678941
0.0184341
0.00802068
0.0222761
0.0166368
0.0158726
0.0122517
0.0183032
0.00359164
0.0137492
0.0194581
0.016518
0.0419904
0.0433336
0.0185495
0.00575464
0.0177931
0.0227014
0.0150605
0.0201196
0.0444026
0.0242248
0.0493701
0.0210786
0.0490743
0.0438394
0.0156967
0.0403462
0.035618
0.00597706
0.0145398
0.0180889
0.054203
0.0200834
0.0145882
0.0221536
0.0376671
0.050086
0.0131507
0.0183687
0.0123426
0.05225
0.0174624
0.00578297
0.036322
0.0364589
0.0195827
0.0112337
0.00478264
0.00431372
0.0041352
0.0172675
0.00680588
0.0195981
0.0237492
0.0371026
0.0269407
0.0156998
0.0310893
0.0541685
0.0497669
0.0179313
0.0143988
0.0174816
0.0222192
0.0199444
0.0191823
0.0197932
0.0199257
0.0198785
0.0201275
0.0196815
0.0197788
0.0301604
0.0183236
0.0206544
0.0372118
0.021196
0.0306426
0.0179511
0.0413062
0.0219359
0.0190788
0.0177476
0.0233127
0.0355568
0.0197504
0.0196683
0.0196583
0.0198512
0.0199395
0.0199468
0.0198042
0.0201789
0.0186295
0.020845
0.0206285
0.0213059
0.0258395
0.0282845
0.0223058
0.0243036
0.023536
0.0456299
0.0380903
0.0143003
0.0496329
0.037507
0.0368935
0.0246058
0.0406158
0.0197947
0.025363
0.0197923
0.0197842
0.0204457
0.0260406
0.0383267
0.035826
0.0196856
0.0241122
0.0192858
0.0486142
0.0194871
0.0275307
0.0236161
0.0367141
0.0399301
0.0197044
0.0256965
0.0192292
0.0266969
0.0457761
0.0434693
0.0531844
0.0287074
0.02407
0.00768134
0.0512578
0.028237
0.0196234
0.0291194
0.0420061
0.040038
0.00711447
0.0383985
0.0556524
0.0181366
0.0375908
0.00656325
0.0182077
0.0193948
0.0199195
0.0198066
0.0195482
0.0359584
0.0200144
0.0201453
0.0197139
0.0203647
0.0254755
0.021558
0.0142026
0.0226487
0.0306773
0.0198879
0.0197209
0.0194738
0.0119303
0.0216844
0.0416958
0.0172886
0.0201856
0.0283871
0.023999
0.0214363
0.00448648
0.0461441
0.0206594
0.0303308
0.0466687
0.0269735
0.030478
0.0304519
0.0249903
0.0380815
0.0287851
0.0334011
0.0280783
0.0380255
0.0153838
0.0211399
0.0388341
0.0242414
0.0257099
0.0398416
0.0192248
0.021771
0.0196834
0.0261184
0.0355757
0.0425748
0.0386221
0.035455
0.0143945
0.0182584
0.0195382
0.030772
0.0313258
0.0203618
0.00379821
0.0211095
0.0403235
0.0310075
0.055793
0.0526032
0.027729
0.0489701
0.0498665
0.0578848
0.0451511
0.057127
0.0508471
0.0565407
0.0572664
0.0582122
0.0482286
0.0435753
0.0501537
0.0512907
0.0234996
0.0286182
0.0253135
0.00777587
0.0197203
0.0544984
0.0482647
0.0343041
0.017484
0.0196658
0.0195045
0.0196656
0.0270837
0.0435476
0.0412845
0.0327637
0.0245541
0.0210657
0.042376
0.0345937
0.0450047
0.0350621
0.03504
0.0068444
0.0362039
0.0191066
0.0342068
0.0190756
0.031757
0.0412815
0.0303125
0.0400119
0.0183422
0.0208641
0.0380148
0.0173243
0.0478664
0.0462983
0.0513046
0.0517934
0.0529846
0.0533989
0.0421643
0.0265717
0.0307919
0.019438
0.0406051
0.0204363
0.0183114
0.0195441
0.0367698
0.0178327
0.0390656
0.0522114
0.0290361
0.0536155
0.020151
0.0457906
0.0531761
0.0168091
0.0472817
0.0511113
0.0194633
0.0443952
0.0245627
0.0148213
0.0202599
0.0354495
0.0205442
0.0448896
0.0220891
0.0311385
0.0199898
0.00325246
0.0364907
0.0205069
0.0199285
0.0198177
0.0186908
0.0197714
0.0328199
0.0280837
0.0228568
0.025461
0.0056338
0.00231443
0.0252611
0.0270313
0.0432874
0.0146252
0.0361043
0.00629266
0.0293276
0.0568893
0.0431118
0.0490269
0.0333637
0.0279858
0.0417754
0.0179623
0.0327188
0.013972
0.0286624
0.0191133
0.0313248
0.0253645
0.0204638
0.0202409
0.0199214
0.033716
0.0209383
0.0217547
0.0197763
0.0198029
0.0198024
0.0228277
0.0194967
0.0192603
0.0278374
0.0180298
0.0185753
0.0193238
0.0176525
0.0318975
0.0234086
0.0315138
0.0253856
0.0352926
0.0265196
0.023689
0.0262734
0.0320163
0.0196145
0.0241378
0.0202648
0.0328874
0.014188
0.0324279
0.0418252
0.0272637
0.0277058
0.0299162
0.0542769
0.0194266
0.018759
0.0143341
0.0479588
0.0299253
0.0197544
0.0198281
0.0330299
0.017915
0.0211381
0.0220592
0.0206697
0.018413
0.0375558
0.0197605
0.0195962
0.0197192
0.0180087
0.0190853
0.0185342
0.0493091
0.0296879
0.0272203
0.0297248
0.0248678
0.0217196
0.0426034
0.00169653
0.0467209
0.00486103
0.0483333
0.0407226
0.00182546
0.0333821
0.0552132
0.0368928
0.0528042
0.0325824
0.0300928
0.0365336
0.0392079
0.0195832
0.00520829
0.0313928
0.0210916
0.0345364
0.0171765
0.0164451
0.0147837
0.019259
0.0320744
0.034881
0.0272615
0.0418669
0.0535205
0.0422414
0.0177654
0.0194297
0.0235399
0.0186084
0.0209042
0.0177455
0.0169475
0.0197611
0.028437
0.0191402
0.0187509
0.0176703
0.019782
0.0211706
0.019631
0.0274823
0.0196763
0.0256145
0.0196545
0.020163
0.0245304
0.0206811
0.0213009
0.0223405
0.0270274
0.0372387
0.020484
0.0155446
0.0195443
0.0326751
0.0163944
0.0343611
0.0486743
0.0269869
0.0351091
0.020159
0.0244527
0.0347391
0.0267762
0.0399518
0.0394206
0.0182458
0.0528482
0.0336619
0.0148891
0.0330923
0.0532463
0.0198092
0.0189149
0.0269455
0.00400656
0.00756808
0.0395428
0.0223983
0.0200694
0.0194088
0.0246059
0.0327557
0.0194467
0.0231768
0.0194675
0.0196467
0.0200389
0.0204901
0.0025681
0.021013
0.0175923
0.031615
0.0226366
0.0169171
0.0386203
0.0317697
0.00404141
0.0246965
0.058239
0.0526632
0.0257399
0.0360276
0.0290606
0.0327107
0.0455575
0.0191424
0.0265003
0.0277194
0.0141666
0.0338887
0.0332472
0.0345495
0.0130809
0.0410147
0.0366884
0.0193512
0.0498666
0.0508458
0.0312931
0.0426194
0.0440909
0.00827223
0.0495064
0.0320239
0.0250475
0.0189319
0.0192266
0.019204
0.019549
0.0406039
0.0240905
0.0284644
0.0277333
0.0352993
0.0194643
0.0264277
0.0439496
0.0344782
0.0210786
0.0294239
0.0113844
0.00952521
0.0369889
0.0398497
0.0444307
0.0176776
0.0335152
0.0525514
0.0195045
0.0306248
0.0126693
0.0345359
0.03874
0.034282
0.0280985
0.0344318
0.0449203
0.0198954
0.0365353
0.0182641
0.0310105
0.0505252
0.0205808
0.0363053
0.0245679
0.023041
0.0296727
0.0206017
0.0253808
0.0335001
0.0242319
0.0198874
0.048474
0.0235267
0.0438188
0.0421258
0.0231652
0.0580744
0.0561493
0.0202391
0.0573167
0.0473756
0.0181508
0.0575719
0.0505894
0.0165694
0.0519412
0.055342
0.0173493
0.0185959
0.016674
0.0473771
0.0432341
0.0165302
0.0379697
0.0361251
0.0173058
0.0185105
0.0178086
0.0327351
0.0145165
0.0400357
0.0274641
0.0197427
0.0194265
0.0383421
0.0194746
0.0158171
0.00226152
0.0395069
0.0310839
0.035257
0.0363896
0.0343867
0.0263149
0.0296233
0.00613457
0.0211028
0.0273888
0.0197511
0.034275
0.0197864
0.0339182
0.013954
0.0422133
0.0349722
0.015862
0.0436219
0.0221474
0.0347834
0.0434365
0.00483185
0.0347378
0.0147635
0.0213221
0.0194793
0.00909554
0.0122008
0.018919
0.0400424
0.0474321
0.0165428
0.0396103
0.0391258
0.0428214
0.0132911
0.0389565
0.0466371
0.0461813
0.0164303
0.0452295
0.0358345
0.0242432
0.0355415
0.00329843
0.0299714
0.0263054
0.0159177
0.0352025
0.000799719
0.0454283
0.00412585
0.0351194
0.0153411
0.0321034
0.0329318
0.0357365
0.0274119
0.0220994
0.0354113
0.0201366
0.0185917
0.0474412
0.0350322
0.0364644
0.0189894
0.0194483
0.0404696
0.0281078
0.0301596
0.0270316
0.0263585
0.0209309
0.022951
0.0228896
0.0216183
0.0137892
0.0246674
0.0159849
0.0421678
0.0197709
0.0336568
0.0444181
0.00606503
0.01638
0.0180514
0.0415291
0.0165651
0.0308498
0.0366504
0.01615
0.0357431
0.0116567
0.00535293
0.0170333
0.0218092
0.039591
0.00529299
0.0232382
0.0244761
0.0272876
0.0159588
0.0133729
0.0381344
0.0407613
0.00553579
0.0105407
0.0418525
0.0167727
0.0158385
0.0410419
0.0047492
0.0353849
0.0135873
0.0278018
0.0195082
0.052359
0.0160759
0.0126791
0.0362823
0.00630334
0.0141329
0.0457121
0.00717203
0.0428417
0.0163948
0.0137742
0.0111779
0.0433013
0.0170992
0.0133108
0.0259072
0.0156295
0.0322902
0.029952
0.0236697
0.0264421
0.0149293
0.0347332
0.0507972
0.0184198
0.0327463
0.0380685
0.0249554
0.0485003
0.0203497
0.0243467
0.0153984
0.0100838
0.015817
0.0344716
0.0230586
0.0382432
0.0272867
0.0210729
0.0298175
0.00648985
0.0530432
0.0148406
0.000883726
0.0430362
0.045425
0.024004
0.0178311
0.0148617
0.0132434
0.0198127
0.0232296
0.0196922
0.0444055
0.0372468
0.0433543
0.0552211
0.0362016
0.0332934
0.0141236
0.00458063
0.0393162
0.0442143
0.0300905
0.0123518
0.0365117
0.0227799
0.0280948
0.0228673
0.0282921
0.0250355
0.0191524
0.0186203
0.020767
0.0377718
0.0199658
0.00818501
0.00671711
0.0314303
0.025762
0.0187281
0.0213767
0.0467435
0.0340293
0.0315349
0.0254107
0.0221178
0.00213703
0.0485706
0.00645313
0.0355274
0.0354812
0.010634
0.0249193
0.018602
0.0219546
0.0210624
0.019808
0.028357
0.0436966
0.0152507
0.0378511
0.0271228
0.0247537
0.0269452
0.0112209
0.0204422
0.0333695
0.0196948
0.0158311
0.00739008
0.0198478
0.0497948
0.0122875
0.0355259
0.0385222
0.0185725
0.0159711
0.00511752
0.00355128
0.0199848
0.0350407
0.0189124
0.045949
0.0140623
0.0165223
0.0368102
0.0204186
0.0150237
0.0395187
0.0119826
0.0200025
0.0185579
0.0341049
0.0123336
0.0173587
0.0468872
0.0296008
0.00661743
0.0440606
0.048764
0.0150284
0.0366028
0.0243557
0.01771
0.0155366
0.00485173
0.0526646
0.0438197
0.040469
0.00428811
0.0492739
0.0472316
0.0331423
0.00993373
0.0378244
0.0490616
0.0485017
0.00986344
0.0194691
0.0356492
0.0279565
0.0368371
0.0373423
0.0530748
0.00882374
0.0194494
0.0358008
0.0364595
0.0158476
0.0187274
0.0476522
0.0210949
0.0359062
0.0379637
0.00667759
0.0445607
0.0182858
0.036738
0.020506
0.00936297
0.00511567
0.00240731
0.00736377
0.0104333
0.0477128
0.015758
0.0356027
0.0457199
0.0273468
0.0159274
0.0352648
0.00635447
0.00362134
0.0342049
0.0333688
0.0137111
1.60053e-05
0.0188749
0.00883796
0.018785
0.0145251
0.035482
0.0168457
1.30459e-05
0.0363062
0.0128399
0.0386019
0.0394776
0.0142888
0.00292255
0.00702306
0.0123944
0.0134072
0.0467284
0.00164087
0.0424898
0.0147434
0.0384687
0.0124446
0.0167789
0.0521533
0.0164217
0.040302
0.0474243
0.038282
0.00240831
0.0132608
0.00706283
0.0066387
0.0355385
0.0127984
0.0398587
0.0420796
0.0365139
0.0167068
0.00867054
0.0391142
0.0358207
0.0122769
0.00526868
0.0199198
0.0444717
0.0109252
0.0406071
0.0307265
0.040681
0.0583321
0.039621
0.0472466
0.0364549
0.00682974
0.0366385
0.0290247
0.0357695
0.0219524
0.0119073
0.0177537
0.051846
0.0112271
0.0157667
0.021602
0.0451385
0.00350377
0.0514908
1.30098e-05
0.0109522
0.0100476
0.0309685
0.0320609
0.0106915
0.0118516
0.0484168
0.0353719
0.0135223
0.0149561
0.0156741
0.0354791
1.37014e-05
0.0331717
0.00644447
0.0279869
0.00437817
0.0361975
0.0365111
0.0258561
0.0211659
0.00356376
0.0404781
0.0122488
0.00252204
0.0205171
0.0232017
0.0157685
1.78014e-05
0.0177444
0.0411508
0.0180495
0.0174397
0.0128885
0.0550966
0.0118043
0.015924
0.0125497
2.64005e-05
0.0486246
0.0422336
0.0162384
0.00655983
0.0199471
0.0118914
0.0499734
0.0481549
0.0416905
0.0321663
0.00599288
0.0419955
0.0395496
0.014927
0.0169595
0.0101274
0.0118313
0.00538427
0.0073666
0.0139365
0.00200343
0.0132504
0.0184005
0.0365261
1.97968e-05
0.0556391
0.0112501
0.0360832
0.00389567
0.00437236
0.0239771
0.0206817
0.0537909
0.0311047
0.0259845
0.0416967
0.0198008
0.0395628
0.0114866
0.0163779
0.0478778
0.0190242
0.0182159
0.012906
1.2052e-05
0.00510384
0.0100305
0.00500508
0.0113071
0.0027864
0.0194333
0.0549965
0.00358446
0.0538582
0.00576435
0.0190909
0.0414637
2.32888e-05
0.0186355
0.0483796
0.0116126
0.0332157
0.00891663
0.0139017
0.0267598
0.0076201
0.0282221
0.0136507
0.0467762
0.0254238
0.0116605
0.000806127
0.0312761
0.0536178
0.0475878
0.0219608
0.0336414
0.00509841
0.0199405
0.0328831
0.0113609
0.0354742
0.00812791
0.0240015
0.0418103
0.0166716
0.00554109
2.15424e-05
0.00811643
0.00903044
0.0107341
0.0439605
0.0139548
0.0382039
0.0388887
0.0128619
0.0457377
0.00623341
0.0113745
0.0107938
0.00991579
0.0201909
0.0118637
0.0233062
0.047254
0.0254197
0.0467192
0.0122
0.0265828
0.0439013
0.0304743
0.00626204
0.0380939
0.0085001
3.11713e-05
0.0202776
0.00174326
2.73265e-05
0.0134072
0.0363335
0.00463725
0.0469619
0.0387726
0.0374113
0.00546334
0.0343497
0.0465856
0.0431643
0.0144599
0.0395542
0.0106866
0.0330129
0.0210803
0.0266039
0.0427741
0.0150234
0.0417316
0.0432742
0.0170768
0.0493349
0.0211903
0.0472277
2.27954e-05
0.0204969
0.0482099
0.00315647
0.0151556
0.0114617
0.0392194
0.0413061
0.00805489
0.0104058
0.00797985
0.0113659
0.00851939
0.00915617
0.0488504
0.0102915
0.0102119
0.0381763
0.0107615
0.0468333
0.00571967
0.00401194
0.00456386
0.0189552
0.00858665
0.00105502
0.0478678
0.0350813
0.0363943
0.00777735
0.011545
0.00340465
1.59946e-05
0.00979033
0.0337933
0.0405435
0.0113469
0.00458985
0.0119414
0.0362194
0.0154974
0.0339594
0.0077059
0.00303036
0.0102528
0.00790431
0.00604111
0.0117718
0.0419443
0.00744213
0.0114166
0.00352876
0.0114999
0.00709116
0.0238451
0.0101428
0.00384392
0.0408349
0.0061528
0.0130229
0.0395768
0.00820173
0.0343643
1.65559e-05
0.00778435
0.0159162
0.0125227
4.0847e-05
0.0328095
0.0133373
0.00567162
0.0501796
0.0112532
0.0506163
0.0247248
0.0173614
0.0388507
0.0338016
0.01829
0.0439644
0.0447196
0.0400463
0.0551227
0.0104866
0.0374532
0.0147831
0.000751743
0.00817393
0.0394195
0.0326682
0.0461907
0.00780697
0.047192
0.00559039
0.00848071
0.0191951
0.0108408
0.0106454
0.00671118
0.0183743
0.0403044
0.00938804
7.74958e-05
0.00557277
0.0284567
0.0363767
0.041549
0.018188
0.0146676
0.0453311
0.0412582
0.0448078
0.0090905
0.0443291
0.0277642
0.0275539
0.0203484
0.0077337
0.0320593
0.0402407
0.0477576
0.00953121
0.0385664
0.00906825
0.0219204
0.0257864
0.021807
0.0254484
0.0069071
0.00594501
3.72351e-05
1.43569e-05
0.0199523
0.0238192
0.00934602
0.0374735
0.00529641
0.0301843
0.0548645
0.0451518
0.0167824
0.00942362
0.0474413
0.0154416
0.000684805
0.00564434
0.0025153
0.0100037
0.0451154
0.00819634
0.00404855
0.0239084
0.0164072
4.82683e-05
0.0145645
0.0349451
0.0107621
0.0433305
0.0126731
0.0133812
0.0123117
0.0433787
0.0372356
0.00997515
0.0361886
0.0223389
0.0299614
0.0132703
0.0374818
0.0101517
0.0508146
0.00897489
0.0453077
0.0520856
0.0359746
0.0299207
0.00930412
0.0104139
0.0392154
0.0363457
0.0277116
0.0350557
0.0206
0.0338523
0.00244654
0.00165262
0.0075488
0.0357096
0.0468322
3.05203e-05
3.25682e-05
0.0029083
0.00479325
0.010638
0.0443107
0.0133612
0.00828092
0.0361306
0.00988222
0.0192872
0.0166449
0.0300539
0.00884346
0.035244
3.26718e-05
0.0362735
0.00464231
0.00991198
0.0463327
0.00808297
0.0479962
0.00381463
0.0139142
0.0351351
0.050791
0.00764674
0.00464171
0.0324655
2.09104e-05
0.0123631
0.0494612
0.00488073
0.0309348
0.00748271
0.0456153
0.0495081
0.0221227
3.0263e-05
0.0373699
0.00776873
0.0182156
0.0426471
0.0355127
0.0367127
0.0391526
0.0342388
0.00837281
0.0161541
0.0341448
0.0133724
0.0247089
0.0394898
0.0345452
0.0398975
0.00866305
0.0155035
0.0370037
0.0293862
0.0185729
0.0217208
0.0051245
0.0180921
0.0538596
0.0432636
0.0100067
0.0513965
0.0429216
0.00734558
0.0103346
0.0358845
0.0371936
0.00228466
3.19002e-05
0.00416869
0.0426759
0.0550916
0.00410828
0.0232918
0.0505355
0.0363571
0.0101389
0.0144805
0.00565959
0.0291853
0.0103712
0.0135495
0.0061853
3.67519e-05
0.0524192
0.0177069
0.0473044
0.000809299
0.0379701
0.0456564
0.0221672
0.0176875
0.0314713
0.019264
0.0528142
0.0350662
0.0209476
0.00856134
0.0394513
0.00777314
1.71205e-05
0.011707
0.0459699
2.20735e-05
0.0148843
0.00530823
0.00557291
0.0267158
0.0169069
0.0514885
0.0151627
0.0106806
0.0491386
0.00900547
0.0239354
0.0514608
0.045418
0.0367719
0.00820127
0.0363437
0.0394431
3.56912e-05
0.0055502
0.0520158
0.00956837
3.92044e-05
0.00733373
0.0114504
2.20169e-05
0.00494087
0.0378813
0.015183
0.0173126
0.0355545
0.0410942
0.0366144
0.0549729
0.0444713
0.0160702
0.00591934
4.3058e-05
0.0499243
0.00811114
0.0388996
0.0421168
0.0358828
0.00962833
1.96554e-05
0.0372271
0.0367619
0.00804905
0.00730373
0.00275433
0.0107753
0.0159214
0.0141675
0.038151
0.0399597
0.0266785
0.0368945
0.00935487
0.039996
0.0153509
0.0112085
0.0008354
3.88899e-05
0.0407277
0.0518282
0.0142626
0.00934691
0.00974679
0.0212617
0.0196408
0.00560712
0.0052254
0.00790807
0.00510197
4.21558e-05
0.00548165
0.0486185
0.0245925
0.0332028
0.0042382
0.042644
0.0532069
0.0344496
0.0122088
0.0183308
0.0127643
0.00851344
0.00820898
0.0427474
0.00945594
0.0140152
1.92028e-05
0.0374625
0.00509328
0.00954417
0.00297942
0.0540539
0.0100349
0.0132785
0.0016712
0.0353101
0.0171489
0.0353507
0.0400577
0.0217786
0.000552245
0.0191615
0.00122362
0.0066008
0.00321425
0.0388349
0.00519701
0.0365904
0.00892403
0.0309709
0.0115724
0.0382544
0.0368004
2.96679e-05
0.00601756
0.0391387
2.06393e-05
0.0142353
0.0193635
0.0389849
0.0408433
0.0090723
2.03416e-05
0.0487347
0.0421754
0.052788
0.0131508
0.0457325
0.0408125
0.0256919
0.040322
3.79161e-05
0.046179
1.62688e-05
0.0446248
0.00182756
0.00429909
0.0163548
0.0133578
0.00187464
0.0376215
0.0555551
0.0505771
0.0462601
2.85031e-05
0.0426263
0.0401224
0.0113494
0.00697814
0.0090206
0.0153173
0.00186077
0.0472765
0.0445941
0.037956
0.00894432
0.00904823
0.0493282
0.00682632
0.029211
0.0075978
0.00909894
0.000598923
0.0431833
0.00926526
0.0420067
0.0354547
0.000667334
0.00420239
0.0416691
0.0503476
0.0108766
0.0126565
0.0417694
0.0398956
0.0133047
0.00952836
0.0351287
0.0364713
0.00350181
0.0332001
0.0120351
0.0349969
0.00414643
2.56791e-05
0.0505695
3.56665e-05
0.00883902
0.0170882
0.00998407
0.00975468
0.0109181
0.00846876
0.0193653
0.0302013
0.0354327
0.0359363
0.0390265
0.00970301
0.030029
0.00535573
2.78694e-05
0.0373042
0.0494243
0.0457329
0.0437096
0.0427224
0.04084
0.0209328
0.0413804
0.0527201
0.0266022
0.0541964
0.0485057
0.0443202
0.052642
0.0178308
0.0184334
0.00217184
0.00735795
0.00775922
0.00835436
0.0376029
0.00260082
0.0473219
0.000621714
0.041819
0.0213976
0.00952965
0.0124795
0.0414315
0.0481102
0.0343933
0.00252123
0.0175594
0.0105093
0.0457283
0.0327596
0.0377282
0.0104578
0.00821813
0.0179809
0.0459185
0.0461042
0.0222661
0.034267
0.0127617
0.0174313
0.0413239
0.0447206
0.0443996
0.0438612
0.0114661
0.00101408
0.00368078
0.0154772
0.00377066
0.0112031
0.00676377
0.0147247
0.0126558
0.00863546
0.00186325
0.0436673
0.00564919
0.00993615
0.00548057
0.00164024
0.0137639
0.0475825
0.0100005
0.035919
0.000692108
0.00798895
0.000807332
0.041434
0.028498
0.0122148
0.00593935
0.0470119
0.00656635
0.012514
0.040939
0.038361
0.0379528
0.0535175
0.0425413
0.0389597
0.0366404
0.00560914
0.0224539
0.0108031
0.0108301
0.00227046
0.0440277
0.0122019
0.0123744
0.00187939
0.0282538
0.0121558
0.0366051
0.00432131
0.0118783
0.00837
0.0528691
0.0498496
0.0428302
0.000745496
0.0103783
0.0209403
0.0509387
0.00744171
0.0116978
0.042659
0.050995
0.0351468
0.00646348
0.0514671
0.0379371
0.00763759
0.0121625
0.0358821
0.00676107
0.0143719
0.00604176
0.022189
0.00223853
0.00873871
0.0447971
0.0164458
0.00591126
0.0125161
0.0323613
0.000643948
0.0107547
0.000938233
0.0112247
0.0100795
0.0131566
0.0427157
0.00577609
0.0583462
0.0392028
0.047069
0.0175263
0.0243865
0.00332663
0.00814578
0.00853184
0.0150799
0.0521356
0.0133387
0.0365242
0.0253157
1.52091e-05
0.0116249
0.0457239
0.0414815
0.0117647
0.0536349
0.00657037
0.0552807
0.00589721
0.039146
0.00732274
0.0448674
0.00790343
0.0227859
0.0176648
0.00814774
0.00255827
0.000892406
0.0524294
0.00313336
0.0138148
0.00947211
0.0149978
0.0206745
0.0145683
0.016138
0.0413185
0.0161212
0.0110402
0.031527
0.0109424
0.00464
0.043852
0.00846956
0.0468914
0.00949546
0.0370717
0.0401835
0.0374658
0.0171685
0.005921
0.00567703
0.0230066
0.0160645
0.0450909
0.0311099
0.0466824
0.0391621
0.0386088
0.0227626
0.0214301
0.0305597
0.0536923
0.00882925
2.26469e-05
0.0459656
0.0369449
0.0120681
0.00485736
0.0165133
0.0519402
0.0372408
0.00468842
0.0171644
0.0360671
0.0349389
0.00381471
0.0187665
0.0502316
0.0388699
0.0159118
0.000190305
0.00952397
0.0178839
1.34034e-05
0.00317554
0.0232707
0.0117631
0.00538965
0.0412619
0.0089305
0.0265706
0.0368252
0.0476917
0.00326756
0.0476226
0.0120125
0.0108823
0.0381275
0.0176777
0.00451483
0.0473177
0.00255804
0.0432642
0.0126649
0.0138871
0.0222929
0.0109282
0.00808975
0.0262264
0.0389037
0.011059
0.0378182
0.0084408
0.00317133
0.00517781
0.0273072
0.0386143
0.0398485
0.00759342
0.0514671
0.0517288
0.0295335
0.0169788
0.0392956
0.0213782
0.0305004
0.040388
0.0110872
0.00885763
0.0213815
0.044782
0.00581473
0.0459519
0.0504869
0.0382767
0.00112482
0.0364268
0.0452175
0.00365824
0.0476953
0.0389179
0.0270139
0.0107663
0.0379087
0.0131386
0.00624188
0.0376653
0.00709676
0.0197968
0.0336187
0.00594138
0.00805205
0.0038053
0.0437311
0.0144381
0.0442648
1.59522e-05
0.00604535
0.0365764
0.0168391
0.0245054
0.0087124
0.036255
0.0367852
0.0429111
0.0489871
0.0503413
0.0364116
0.00318213
0.0291295
0.0469541
0.0363818
0.048196
0.000858363
0.0114294
5.02831e-05
0.0224223
0.0227416
0.00533983
0.037917
0.0397348
0.0457077
0.0374733
0.0380263
0.0172623
0.0454356
0.0410674
0.0138062
0.00838887
0.00419863
1.10855e-05
0.0126972
0.0418917
2.34758e-05
0.00201436
0.0160783
0.00102213
0.00173975
0.00378769
0.0119889
0.0507419
0.00321644
0.0543204
0.0087227
0.0495255
0.0161779
0.0357913
0.0456351
0.00725116
0.0140263
0.00121225
0.0400664
0.0195591
0.0183845
0.0181219
0.0583175
0.040136
0.0288175
0.00979923
0.0322416
0.00503408
0.0190712
0.0318833
0.00875985
0.049287
0.0500548
0.0246027
0.0502213
0.0142748
0.000727802
0.042504
0.0384549
0.0121555
0.0334349
0.0118099
0.0099259
0.0147825
0.0368669
0.0478188
0.0127245
0.00779889
0.0457747
0.0481267
0.00623538
0.0471152
0.0446866
0.0156254
0.0349718
0.00392595
0.0179663
0.01082
0.0359852
0.0192281
0.0553877
0.0466539
0.0438108
0.0134469
0.0527858
0.0535026
0.0507991
0.0117368
0.00785174
0.0497866
0.0150858
0.00966139
0.0123818
0.0495024
0.00900506
0.00771264
0.00355443
0.0366459
0.00506042
0.0495565
0.00890538
0.0481791
0.0112454
0.00260298
0.0051694
0.035814
0.0358934
0.00968825
9.62509e-05
5.98183e-05
0.04352
0.00364884
0.0506883
0.0433227
0.0061932
0.0114851
0.0475446
0.0124527
0.0228368
0.0395067
0.00492239
0.00235322
0.0107694
0.0502411
0.0406296
0.0151128
0.0300525
0.0426323
0.0164884
0.00749787
0.00755421
0.00891493
0.0488103
0.0485551
0.00724345
0.0107606
0.00977981
0.0139459
0.00866423
0.00931321
0.0359292
0.0364169
0.0421445
0.0511732
0.0475409
0.000944458
0.0122012
0.0378026
0.0368266
0.0374003
0.0506494
0.0172841
0.000775716
0.00795352
0.0517594
0.0526904
0.0517908
0.000585714
0.0137166
0.00927302
0.0380072
0.0107355
0.0379478
0.0428097
0.0130591
0.0418376
0.00268904
0.015168
0.0498418
0.00773356
0.0436105
0.00473732
0.00669845
0.0262021
0.00925601
0.0388986
0.0146806
0.00387963
0.0128531
0.0443234
0.00893611
0.00799781
0.0388254
0.0456119
0.00643936
0.000720732
0.0388648
0.0125923
0.00915687
0.0188828
0.00094369
0.00814395
0.000946667
0.00663706
0.00558801
0.00541694
0.00919173
0.0129515
0.0077436
0.0110612
0.0540455
0.048887
0.0467581
0.010347
0.046813
0.00980844
0.00105683
0.0414631
0.0447056
0.0541873
0.0537882
0.045854
0.00820279
0.0148397
0.0114471
0.0127034
0.00912064
0.00825994
0.0467605
0.048747
0.0082735
0.0421222
0.0410252
0.037663
0.0471712
0.000842612
0.0362629
0.00269303
0.0355051
0.0405409
0.00199774
0.0523848
0.0118576
0.00753773
0.0104971
0.0073579
0.0352021
0.0373277
0.03687
0.03402
0.0138479
0.00625174
0.00532888
0.0424772
0.00334217
0.00952144
0.00601745
0.036709
0.0408816
0.0457303
0.0404311
0.00922875
0.0144855
0.0101319
0.0532126
0.00648929
0.0135894
0.0330119
0.0126573
0.0102278
0.0339313
0.0121965
0.0126308
0.0133062
0.0247062
0.00114751
0.0545576
0.054115
0.0256289
0.012931
0.0386071
0.00603064
0.0142817
0.00532643
0.0544937
0.0384554
0.008338
0.0518327
0.0381991