/*--------------------------------*- C++ -*----------------------------------*\
  =========                 |
  \\      /  F ield         | OpenFOAM: The Open Source CFD Toolbox
   \\    /   O peration     | Website:  https://openfoam.org
    \\  /    A nd           | Version:  10
     \\/     M anipulation  |
\*---------------------------------------------------------------------------*/
FoamFile
{
    format      ascii;
    class       volScalarField;
    location    "300";
    object      p;
}
// * * * * * * * * * * * * * * * * * * * * * * * * * * * * * * * * * * * * * //

dimensions      [0 2 -2 0 0 0 0];

internalField   nonuniform List<scalar> 
23845
(
-0.0659741
-0.100818
-0.183379
-0.181917
-0.0809041
0.00714443
-0.170795
-0.187419
-0.00133642
-0.0362002
0.00602913
0.00306126
0.000307538
0.00135016
-0.176989
-0.00775257
0.00170987
0.00385003
0.00375744
0.00288734
-0.0830083
0.00660371
-0.124195
0.00581111
-0.0110218
0.00469981
-0.14806
0.0061034
-0.194068
0.00378461
-0.177367
-0.175673
-0.186327
0.00359618
0.0046478
0.00580498
-0.184955
0.00427277
0.00108226
0.00685596
0.00410521
0.00116763
0.000880979
0.00070446
0.0078616
0.000571824
-0.0961116
-0.00344025
-0.168823
-0.196682
-0.176158
-0.175518
-0.168876
0.00769259
-0.178052
0.00185156
-0.123364
-0.184798
-0.0854297
-0.159975
-0.192203
0.00203323
-0.000147645
-0.194157
0.00639035
-0.000969084
-0.16031
0.0048757
0.00495136
0.00436514
-0.189535
-0.187783
-0.000936125
-0.176832
0.00539231
-0.177778
0.00104904
0.00374765
-0.184306
0.00456583
-0.130577
-0.169089
-0.110798
-0.188011
-0.179705
0.00527195
-0.162971
-0.166514
0.00337718
0.0046858
-0.180348
0.00462217
-0.195914
0.00641433
-0.182103
-0.184324
0.000541888
-0.00546413
0.00230419
-0.0813726
0.0025035
-0.171959
-0.0513962
-0.204095
-0.198453
-0.187118
0.00705594
0.00568736
-0.162187
0.00119528
0.00598893
0.00423663
-0.184014
-0.0203219
0.00501006
-0.0681961
0.00575896
-0.0223692
-0.19312
-0.191923
0.00296956
-0.179246
0.00587559
-0.190414
-0.165496
0.00457677
-0.191525
-0.197827
-0.185753
-0.116209
-0.187479
-0.0159939
-0.00385782
0.00126295
0.00452485
-0.0573589
-0.201402
0.00117791
-0.157381
0.00370521
-0.193231
0.000733977
0.0063888
0.00145876
0.00314465
0.000850841
-0.0458203
-0.175415
-0.190895
0.00587796
-0.17223
-3.51565e-06
-0.152087
0.00183809
-0.183322
0.00621436
-0.0580528
0.00782905
-0.1888
-0.188539
0.00575061
-0.18024
-0.180927
0.00532258
0.000270982
0.00613488
0.000944529
-0.181988
0.0038835
0.000690123
0.000803804
-0.18302
0.00699598
-0.190579
0.00691354
-0.183379
0.00421204
0.00422391
0.00593895
0.00758996
-0.076647
-0.0784812
-0.174476
0.00655573
-0.000115167
0.00181837
0.00153518
-0.187658
-0.194787
0.000856672
-0.195896
0.00513355
0.00656999
0.00747936
0.0049314
0.00607959
-0.201486
-0.196201
-0.212019
0.00460494
0.00649164
0.00630243
-0.191191
-0.0109568
-0.187697
-0.181926
-0.185032
0.00435979
-0.105931
0.00481506
0.00372092
-0.186119
-0.00126613
0.00301655
-0.171996
-0.181945
-0.00690557
0.00178231
-0.194689
-0.186662
0.00157395
-0.178172
-0.201278
0.00601885
0.00142564
-0.177425
-0.197464
0.00735286
0.00739348
0.00550207
0.00768176
-0.169626
0.00507883
0.00335773
-0.0689357
-0.192452
0.00684297
-0.178708
0.00517937
-0.186336
-0.168195
-0.0327178
-0.186192
-0.0620713
-0.180048
-0.00294871
0.00685301
0.0105995
-0.182329
-0.172089
0.000992524
0.00750236
-0.177223
5.84141e-05
-0.169995
-0.182477
-0.191353
-0.182443
0.00510871
0.00652406
-0.164999
0.0076521
-0.191028
0.00644865
0.00660578
0.00777383
-0.182725
-0.191519
-0.163347
-0.180999
0.00533275
-0.185
-0.173794
0.00685796
0.00666224
0.00700905
-0.181997
0.00802496
-0.207721
-0.124173
-0.187685
0.00806264
-0.178178
0.00538917
0.00628446
-0.192523
-0.188522
0.00601328
-0.183152
-0.180304
-0.183146
-0.172283
-0.193825
-0.182631
-0.183106
0.00512518
-0.192094
0.00673606
0.00599258
-0.190734
-0.19159
-0.174531
-0.192943
-0.179854
0.0077288
-0.178408
-0.196052
-0.174725
0.00196693
-0.200015
-0.173116
-0.148118
0.00192547
0.00711836
-0.183313
-0.194449
-0.192395
-0.000661752
-0.183497
0.000635626
-0.198938
-0.184205
-0.190635
0.00403047
-0.179354
0.0054049
-0.182966
-0.125196
-0.192523
0.00535785
-0.176886
0.00358434
-0.178653
0.00781589
-0.188964
-0.179416
-0.180435
0.00349604
0.000533624
-0.183219
-0.184085
-0.190687
0.00537507
0.00205829
0.00626555
-0.211508
0.00813953
-0.182977
-0.183539
-0.175063
-0.177543
-0.192583
-0.197733
-0.180396
-0.168963
0.00732271
0.000487686
0.00267064
-0.180323
-0.184468
-0.188283
0.00913107
-0.0408054
0.00475301
-0.194007
0.00327565
-0.189499
0.00604943
-0.192119
0.00657179
0.000975744
-0.18198
-0.2004
0.00266858
0.00765872
-0.180859
-0.181845
-0.179976
0.000638151
-0.187385
-0.17782
0.00743252
-0.109316
0.00498512
0.00220891
0.00432101
0.00779468
-0.182762
0.00614764
-0.183058
-0.162413
0.00121005
-0.196522
-0.20002
-0.172622
-0.188638
0.00700782
0.00642557
0.00466464
0.00751455
-0.182552
-0.167015
-0.181516
-0.185227
-0.150987
-0.176179
0.00350279
-0.197473
-0.197105
-0.19188
-0.180068
0.00664926
-0.167054
-0.191872
-0.0600544
-0.182826
-0.160485
0.0073329
0.00684658
-0.0626009
-0.192805
0.000358708
0.00391618
-0.183598
-0.19146
-0.0909271
-0.201924
-0.17511
-0.189945
-0.189355
0.00642756
0.00342978
-0.191146
0.00415783
-0.000507252
0.00429431
0.00261338
0.00159064
-0.193875
-0.190185
-0.178942
-0.19729
-0.198396
-0.191243
-0.171689
-0.19286
0.0035183
-0.148251
0.00772415
-0.1853
-0.184998
0.0032293
-0.204871
0.00799952
0.00577265
-0.189689
-0.149008
-0.0141837
-0.18185
0.00651672
-0.123042
-0.182713
-0.199894
-0.137661
0.00791685
0.00456532
0.00788446
-0.170635
0.000499745
-0.184449
0.00408192
0.00419776
-0.170224
-0.191806
-0.19446
-0.0605733
0.00276601
-0.178089
0.00566653
0.00486822
-0.124034
-0.151309
-0.175902
0.00588131
0.00680892
-0.173839
0.00506894
0.00481088
-0.177552
-0.190476
0.00623699
-0.191913
-0.182992
-0.13992
-0.189105
-0.106646
0.00310001
-0.184276
0.00608696
0.00778483
-0.161872
-0.190694
-0.18977
-0.115861
-0.187183
-0.185842
0.00649978
0.00125603
0.00527378
-0.190097
-0.176162
-0.191472
-0.18572
-0.173433
0.00709603
0.00135655
-0.159527
-0.18456
-0.183735
0.0026894
-0.178917
0.00606727
0.00433087
-0.193731
-0.00104104
-0.176448
-0.181665
-0.193324
-0.109081
-0.189633
-0.191104
-0.198773
-0.0382726
-0.127326
0.00462253
0.00159753
0.00590046
-0.19255
-0.0813544
-0.184686
-0.187989
0.00821297
-0.112699
-0.114422
0.00493052
-0.107
0.00559586
0.00299181
0.00489977
-1.72553e-05
0.0016857
0.00547747
-0.190238
0.000735901
-0.185911
-0.135487
0.000630746
-0.189571
0.00816649
0.00677926
-0.182128
-0.183458
-0.133917
0.00233183
0.00128758
-0.200932
-0.197442
0.00138024
-0.193798
0.000389369
0.00253677
-0.172622
0.0020381
0.00696371
-0.0138309
-0.0613061
-0.192152
-0.178528
-0.18236
-0.0807401
0.00175002
0.00293277
0.00484412
-0.178412
-0.192348
0.000824521
-0.000733218
0.00262604
-0.180785
0.00269592
-0.137487
-0.179775
-0.087014
0.006924
-0.186346
0.000431091
0.00309424
0.00771981
0.00367454
0.00100093
-0.181591
0.0040563
-0.0587828
-0.177015
-0.187504
-0.00908065
-0.180373
-0.0698918
-0.172545
0.00624188
-0.122337
-0.062307
-0.130483
-0.0603444
-0.192114
-0.0611924
-0.018126
-0.0442703
0.00254764
0.0048634
-0.0621541
-0.18967
-0.0903462
0.00727778
-0.0828868
0.0074148
0.00418681
0.00218215
0.00209662
-0.0142567
0.000214301
0.000797316
-0.140593
0.00619999
0.00479829
-0.183487
-0.0534807
-0.0189188
0.00132538
0.00606846
-0.113839
0.00512249
0.00545319
0.000669951
-0.0565424
-0.00378927
-0.0809939
-6.64203e-05
-0.00660247
-0.183673
0.00484585
0.0071457
-0.0221191
-0.186639
-0.193408
-0.196238
-0.191156
-0.00794805
-0.191385
0.00574034
0.00454202
0.00486504
0.00404605
-0.080709
0.00340733
0.000374342
0.0014714
-0.0548013
-0.167079
0.00103466
-0.0089265
0.00782801
0.00613158
0.00694875
0.00666613
-0.00581144
0.00666521
-0.0155525
0.00449008
0.00408987
0.00380565
0.00574013
0.00143801
0.00460337
0.00410395
-0.00648648
0.00134441
0.00390589
-0.00378155
-0.00441977
0.00336858
0.000689213
0.00757425
0.00758373
0.00699534
0.00587955
-0.00253443
0.00719539
-0.0110769
0.00605998
0.00333176
0.00498096
0.00578948
0.00437552
0.00326577
0.00330126
0.00264535
0.00214905
0.0022969
0.00206866
0.000821578
-0.164828
0.00743961
0.000502017
0.00128167
0.0017651
0.00723237
0.00671844
0.00157268
0.0076385
0.00632978
0.00628455
0.00122168
0.000418527
0.0044265
-0.000255966
0.00541972
-0.0286399
0.00356993
0.00716497
0.000523046
0.00340304
0.00441558
0.000327098
0.000352124
0.00402476
-0.047806
0.00145095
0.00546993
0.000152632
0.00576086
0.000580624
0.00702211
-0.190844
0.00312451
-0.000489847
-0.0192812
0.000254798
0.000208384
0.00184719
-0.165478
-0.00178315
0.00553216
-0.0054053
0.00167268
-0.190116
0.00239747
0.00469444
0.00307581
0.00675338
-0.0101313
-0.00175068
0.0065184
0.00715796
0.00634918
0.00633285
0.00615345
0.00424699
-0.0930888
0.00234693
0.000702153
-0.0041007
0.00398748
0.00217195
-0.182626
0.00592077
0.000146828
-0.0453891
0.00541262
0.00414525
0.00218848
0.00388202
-0.177056
0.00957955
0.00631519
0.000982663
0.00056704
0.0016646
0.0010957
0.000784479
0.00156914
0.000753279
0.00313765
0.000506184
0.000799657
0.000560507
-0.113073
0.00650747
0.00203767
0.00369085
0.00292443
0.000358418
-0.0155129
0.00789978
0.00524573
0.00552756
0.00177875
0.00153559
0.000579821
0.00163707
-0.0651381
-0.00137262
0.00349189
0.0058239
0.000524035
0.00480064
-0.193993
0.00537205
0.00545318
0.00505763
-0.000302809
0.00113943
1.95528e-05
0.00223945
0.00272066
-0.00254443
0.00413235
-0.00212193
0.00117989
-0.00109521
-0.00263714
-0.00244683
0.00403169
0.00424958
0.00164639
0.00166497
-0.00645217
0.00121296
0.000733956
-0.185267
-0.00493782
0.00339437
0.00436406
0.000288152
0.00189055
0.00698248
0.00511468
0.00766035
0.00404538
0.000717778
0.00542918
0.00856585
-0.00130117
0.00446233
0.00274687
0.000102771
5.28844e-05
0.00519147
0.000727561
-0.176135
0.00600693
0.000254221
0.00242576
-0.0177436
0.000741827
-5.99866e-05
0.00167042
0.00460178
-0.0371868
-0.0179182
0.00480816
-0.0505696
0.00293554
0.00356284
0.00226107
0.000478203
0.000111285
0.000548944
0.00197864
0.000760366
0.000440046
0.000409014
0.000726164
-7.53357e-05
-0.00231578
0.00627973
0.00501917
-0.0439533
0.00483159
0.000117031
0.000957982
0.00085451
-0.0218816
0.00373164
0.000146683
-0.0578651
0.00140693
0.000754584
0.00745311
0.0012562
0.00392707
-0.162069
0.00649242
0.000488489
0.00478453
-0.000120468
0.00411011
0.000509035
0.00632049
-0.197478
0.00746986
0.0059625
0.00814806
0.00829445
-0.0502978
0.00688507
0.000645729
0.00435191
0.00305082
0.00256005
-0.186648
-0.201421
0.00172273
0.000394096
0.00519602
-0.151886
0.00044568
-0.180595
0.00109556
-0.000651791
0.00276486
0.00329242
0.000641192
0.000489477
0.00140059
-0.0426244
0.00044526
-0.0771264
0.00526019
-0.00356344
0.000138756
0.0057469
0.00653953
0.00585444
0.0102554
0.00430283
0.00224161
0.00451552
0.00712984
0.00634234
0.0037063
0.0050907
0.00587182
0.00712996
0.0072342
0.000162601
0.00444425
0.00880785
-0.00553853
0.000779666
0.00315857
0.00413391
0.00206481
0.0039605
0.000776263
0.00571782
0.00148448
0.00105771
0.00701488
0.00649592
0.00663397
0.00115942
-0.145446
0.0012389
0.000988928
0.00124287
0.000969011
0.00412336
-0.00259551
0.00718128
-0.0401596
-0.0702331
-0.000685025
-0.0010414
0.00522504
-0.00456481
0.00180512
-0.00939159
0.0063653
0.00414887
0.00405693
-0.00664193
0.00452296
0.00659892
0.00245864
0.00599906
-0.00113743
0.0050732
0.000853624
0.000555282
0.00379764
0.00374722
0.000496576
0.00501981
0.00519433
0.000578103
-0.210923
0.000252827
-0.185664
3.53791e-05
0.00303372
-0.198805
0.00159346
0.00415959
0.00664108
0.000508588
-0.000345474
0.000754791
0.000974652
0.000829842
-0.00672937
-0.193281
0.000703819
0.0058266
0.00357157
-0.109243
-0.132766
-0.0646438
0.00657742
0.000532966
-5.39851e-05
0.00122862
0.00319859
0.00527399
0.00723775
-0.0698868
-0.0374814
-0.00523693
-0.0351438
-0.0160917
-0.0489083
-0.0649686
-0.00280025
0.000447827
-0.023664
0.00226126
-0.000292785
0.00309346
0.00632608
0.00660966
0.00391019
0.00669502
0.00163311
0.00717111
0.00642242
0.00170603
0.00577399
0.00418875
0.00374041
0.000709877
-0.000227574
0.00627899
-0.101028
-0.0153955
0.000865076
-0.0391709
0.00085754
0.000447975
0.00354354
0.000927544
0.00909411
0.0036068
0.000418364
0.00153263
0.00217576
0.00032733
-0.057013
-0.00154164
0.00191815
-0.0342153
0.00074094
0.00586007
0.00678521
-0.00825327
0.00703069
-0.18947
-0.18311
0.000434643
0.00638342
0.00591784
0.00463199
0.00413131
0.00158571
0.00773918
0.007074
0.00771057
0.00744709
0.00641473
0.00674966
-0.205051
0.00505129
-0.00389508
0.000645184
0.00317361
-0.0130398
0.00394926
0.00343718
-0.192561
0.00226924
-0.000965816
-0.000472782
0.00160165
0.00417665
0.000362648
0.00134553
0.00111751
-0.0218905
0.00131846
0.000748123
-0.124137
0.0018033
0.00164094
0.00210327
-0.14385
0.00112324
0.000862723
-0.03168
0.000619168
0.00276133
0.00086917
5.25146e-05
0.00434849
-0.190824
-0.000132279
0.000836693
0.00568167
0.00446252
-0.0367398
0.00580024
0.00725253
0.00145412
0.00325393
0.000811586
0.000603161
0.0020059
-0.0147143
0.00318172
0.00349007
0.00147197
0.00497914
0.00301457
-0.176235
-0.189885
0.00209012
-0.000264158
0.00195565
-0.100983
0.00262118
0.000326702
0.00548646
0.00056389
-0.181937
0.00201897
0.00576604
0.00268248
0.0054317
0.000260305
0.00161693
0.00609929
0.00189827
0.000911062
0.00191628
-0.000689514
0.00796249
0.00104895
0.00630749
0.002788
0.00354926
0.00577397
0.00480055
0.00192978
0.00557166
0.00686604
0.00183301
0.00310804
0.00136666
0.00723615
-0.00625112
-0.00270495
-0.000958332
-0.0197034
-0.0016404
0.00369208
-0.0422254
-0.001076
0.0022212
-0.0737059
0.0015166
-0.000212816
-0.0555558
-0.0118593
-0.106175
0.00566249
0.00307676
-0.0206274
0.00389774
0.0059767
-0.0517331
-0.000723841
-0.0110655
0.00300367
-0.0292829
-5.8454e-05
0.000386671
-0.0112634
0.00600809
0.00166727
0.00489558
-0.0261846
-0.208694
0.00220268
0.000260276
0.00218627
0.00591915
0.00288854
0.00154035
0.000773924
-0.178615
0.00506896
0.000189335
-0.0102079
0.00429277
0.0025131
0.000943014
-0.0935844
0.000583269
0.00330425
-0.110442
0.000643637
0.00633653
0.00418336
-9.00329e-05
-0.192002
0.00317938
-0.046391
0.00734045
0.00222541
-0.189847
-0.183563
-0.0124713
0.00119763
0.000157495
-0.115621
0.00113228
0.00145983
-9.96265e-05
-0.0682498
0.00671995
0.00105455
0.000636695
-0.0507405
0.00314232
0.00394054
0.00175296
0.00300945
-0.195669
0.00411306
0.00509857
-0.0425455
0.00125487
-0.19183
0.00015205
-0.187458
0.00387123
-0.052962
0.00279064
0.00346029
0.00186397
0.00564922
0.00659967
5.90131e-05
0.00645955
0.00125536
0.00162103
0.00296605
0.00418818
0.00119139
0.00205633
0.00455632
0.00471054
0.00265968
0.00527139
0.00680229
0.00631293
0.00399337
0.00561949
0.00595761
-0.0380046
0.00391563
-0.102668
0.00317764
0.00742854
0.00181252
0.00207796
-0.183431
-0.0204625
-0.00282534
0.00480403
-0.00938078
0.00220028
0.00191162
-0.0231115
0.00199088
-0.155094
-0.192255
-0.0416546
0.00601249
0.00311233
-0.193738
0.00624921
0.00389855
0.00508497
-0.015843
-0.127555
0.00282814
0.000105814
-0.181374
-0.179889
0.00230186
-0.032644
-0.0449954
0.000468873
-0.189516
0.00029688
-0.0574612
0.00237387
-0.0263695
0.00490213
-0.0170813
-0.136585
0.00660632
-0.184813
-0.04795
0.0063044
-0.192265
0.000908378
-0.0141897
-0.0438622
-0.185545
0.00395635
0.000212173
-0.112014
0.00372179
-0.0367719
0.00200674
0.000789163
0.00760446
0.00484844
-0.0278938
0.00316661
-0.00030712
-0.0731924
0.00357821
0.00025242
0.00309717
0.000287848
0.00930872
0.00644861
-0.0284989
-0.14585
-0.0296871
0.00275758
0.00484946
0.00404741
0.00475366
0.00615752
0.00101591
-0.189002
-0.00105186
-0.0350856
-0.188873
0.00268974
0.00347917
0.00429382
2.98714e-05
-0.0416265
-0.110854
0.00713316
0.00289933
0.00725696
0.00720376
0.00355337
-5.48067e-06
0.00367336
0.00542449
0.000517382
-0.0396733
-0.190569
0.00191404
0.000318101
0.00566011
-0.145037
0.000550596
0.00599174
0.00167986
0.00597395
0.00139003
0.0043162
0.00289771
0.00215559
0.00793783
0.00416685
0.00682532
-0.171826
-0.185169
0.000565509
0.00893354
0.00209923
0.00788069
0.0011149
0.00217215
0.00207105
0.00589491
0.00578908
-0.191847
0.00434111
-0.17704
0.000332561
0.00412295
-0.125761
0.00450306
-0.0334703
0.00606179
0.00604868
0.0046929
0.00551245
0.00272944
-0.0240377
0.00446914
0.0027991
0.00293338
0.00470518
-0.183806
0.00647071
0.00447218
0.00708378
-0.014905
-0.184405
0.00664517
0.000150345
-0.143701
0.0036907
0.0057823
0.00183245
-0.13213
-0.190461
-0.192188
0.00686724
0.00213352
0.00234153
0.00330004
-0.143684
-0.0194126
0.00373345
0.00662168
-0.0786738
0.00204397
-0.144749
0.00697529
-0.00364748
0.00269773
-0.0702062
-0.0291627
0.00281588
0.00573189
-0.190241
0.00460736
0.00284911
-0.0412102
0.00705082
0.0061317
-0.0383309
-0.00882292
-0.185171
0.00570065
0.00351081
0.0020062
-0.188847
0.000665133
0.00349191
0.00473926
-0.188733
0.00140855
-0.00039621
0.00155062
-0.190161
-0.0108707
0.00472506
0.00411057
0.00799639
0.0074879
0.00147541
-0.164614
0.00492709
0.00533014
0.00342155
-0.0921435
-0.00605786
0.00187358
0.004799
0.00562029
0.00841757
-0.187435
0.00279233
0.000548843
0.00756071
0.00421401
-0.187276
-0.189653
-0.187792
-0.165833
-0.13775
0.0043694
-0.0351558
0.00300907
0.00383306
0.00201076
-0.134771
0.00293637
-0.176574
-0.194574
0.000505134
0.000433346
-0.173911
-0.193239
-0.031154
-0.165739
-0.0431569
-0.138668
0.00451001
-0.0413334
-0.197313
0.00495128
-0.175572
0.00656112
0.00777444
-0.104937
-0.194889
-0.190499
-0.117906
-0.0877262
0.00174078
-0.198815
-0.000169815
-0.0504726
0.00653018
-0.149302
-0.0238036
-0.000592438
-0.0965396
0.00579485
0.00299778
0.00409335
-0.197249
-0.176126
-0.185809
-0.187622
0.000510318
-0.0848603
0.00798569
0.0087514
0.00653202
-0.00803278
-0.190259
0.00576823
0.00293074
-0.116009
-0.175637
0.00644847
0.00535413
-0.183669
0.0014904
0.000647972
0.00150027
-0.00159173
0.00146562
0.0049983
0.00690596
-0.175937
0.000323943
0.00304831
0.00522835
-0.00381121
-0.184178
-0.039063
0.00244315
-0.186155
-0.0220093
-0.0125758
0.00460726
-0.193028
-0.0045592
-0.198438
-0.187551
-0.188244
0.00367397
0.000811583
-0.123519
-0.095467
0.00354424
0.00111541
-0.0849988
-0.103475
-0.143075
0.00462865
-0.195756
0.00127024
-0.185067
0.00136619
-0.185967
0.00704357
0.00176316
0.000488118
0.00875848
-0.191047
0.00732904
-0.183261
-0.187084
0.00422213
0.00304809
-0.0501586
-0.196246
-0.0906324
0.00746898
-0.0231559
-0.0210448
-0.123768
0.00275673
-0.18319
-0.0742801
-0.182629
-0.189269
0.0067059
0.00562238
-0.0107694
-0.181267
0.00760576
-0.104751
0.00870772
0.00247384
0.00429817
0.000489105
-0.192318
0.00117966
0.00770471
-0.143199
-0.00182728
-0.13652
-0.110168
-0.193781
-0.181767
-0.104585
-0.172948
-0.178578
-0.0265474
0.00216597
-0.194756
-0.00137481
-0.180795
0.00288001
-0.190881
-0.193465
0.00265591
0.00649378
0.000470589
0.00261846
0.00213608
0.0061342
0.00694186
0.00699258
-0.0982042
-0.0713735
0.000459829
-0.0234885
-0.00804674
-0.176337
-0.193888
-0.182959
-0.186439
-0.187682
-0.122487
-0.196733
0.00379485
0.00391998
-0.193272
0.000930013
-0.176266
-0.0294127
0.00501729
-0.191327
-0.0138919
0.00123554
-0.184777
0.000974352
-0.15209
-0.0607905
0.000758289
-0.174694
0.002391
-0.0863709
0.00364168
0.002574
-0.137467
-0.208524
0.00684536
-0.00262596
-0.000304432
0.0038865
0.000892464
-0.178698
0.00678229
0.00599761
-0.12109
0.00306081
-0.189943
0.000407601
0.00796127
-0.00685639
-0.18512
-0.193155
-0.188896
-0.190485
-0.163503
0.00598821
-0.170995
0.00722944
0.00772253
-0.18139
0.00635558
-0.184992
-0.133718
-0.145318
-0.187965
0.00742088
-0.171754
0.0053885
0.0014882
0.00339129
-0.00229052
-0.183771
0.00218567
0.000648454
0.00598078
-0.178321
0.00769841
-0.173374
-0.186994
0.00666499
-0.194548
-0.188997
-0.134059
0.00702048
-0.186338
0.00216448
0.00324196
0.00802489
-0.189419
0.00156114
0.00821743
0.00434292
-0.0473272
0.000412799
-0.183129
0.00257115
0.00572838
0.00448122
0.0048089
-0.142861
5.72378e-05
0.00365267
-0.092261
0.00728624
0.00566917
0.000590135
-0.190996
8.97559e-05
0.0052314
-0.197563
-0.126563
-0.130684
0.000167785
0.00712314
-0.179941
-0.127666
-0.171008
-0.111239
-0.174972
-0.171675
0.00883338
-0.180976
-0.156418
0.0045176
-0.187498
0.00734037
-0.192103
-0.19085
-0.190367
-0.00400822
-0.156987
-0.208836
0.00219733
0.000910854
0.00701446
-0.179248
-0.182452
-0.176812
-0.200074
-0.151513
0.00278903
0.0085196
-0.144654
-0.191293
-0.183184
0.0053802
-0.0827772
0.000824945
-0.185219
-0.195867
-0.188198
-0.19044
-0.190395
-0.184116
6.95828e-05
-0.175553
-0.185203
-0.204079
-0.162526
-0.187945
0.00478479
-0.184049
-0.190149
0.00548921
-0.176216
-0.167703
0.00547736
-0.182879
0.00494788
-0.203483
-0.179307
-0.123596
-0.132443
-0.18277
0.00381673
-0.129801
-0.182268
0.00070647
-0.150588
0.000490448
0.00482359
-0.0269302
0.0044986
0.000646296
-0.0190013
0.00709788
0.000495687
0.00772763
-0.00177675
-0.14014
0.00725037
-0.0400653
-0.202491
-0.189048
0.00733073
0.002177
0.00197373
-0.178984
0.00692267
-0.183959
-0.163071
0.00268462
-0.172306
-0.187607
-0.178725
-0.0191177
0.00197717
-0.160949
-0.165824
-0.188644
0.00214598
0.00660155
0.00341658
0.00751853
-0.145631
-0.000413703
0.007923
-0.000496685
-0.190913
0.0076861
0.00222088
0.00560756
0.00659075
-0.190793
0.00564127
0.00489951
0.0010942
-0.147785
0.00195963
-0.180809
0.00408512
0.00541939
0.00517238
-0.00326065
-0.190985
-0.192138
-0.184843
-0.200726
0.00315237
0.00182699
-0.172363
0.00357699
-0.191222
0.00388538
0.000229112
0.00127247
-0.0811357
-0.171384
0.00737406
-0.0929974
-0.202883
-0.183305
-0.188574
-0.154339
0.00503691
-0.190636
-0.193011
0.00446559
-0.0134492
-0.166688
-0.0921266
-0.00106263
-0.184291
0.00428846
-0.154485
-0.0961923
-0.175908
0.00701306
0.00534276
-0.173314
0.000547796
-0.009503
0.00299843
-0.148473
0.0077982
-0.184073
0.000912298
-0.175372
0.00657051
0.00722916
0.00580464
0.00554681
-0.161803
-0.179223
0.000365805
0.00321813
0.00345306
-0.00115941
0.00109082
0.000723181
-0.172628
-0.195705
-0.173699
0.00321176
0.00621723
-0.186876
-0.18028
-0.172566
-0.194158
-0.166135
0.00118581
-0.1586
-0.163269
0.00634216
-0.17096
-0.000500914
-0.017895
0.0019059
-0.155128
-0.00135591
-0.184645
-0.000691688
-0.188915
-0.182131
0.00671014
-0.173414
0.00230218
-0.190224
-0.143405
0.00609979
-0.000991606
-0.174413
-0.189617
0.00621644
-0.20394
-0.126556
0.00527315
-0.19195
0.00146783
-0.191717
-7.62529e-06
0.00255111
0.00411516
-0.165102
0.000389286
-0.184522
-0.00171676
0.00785751
-0.00153405
-0.000746442
0.00734927
0.00201631
-0.191331
-0.081466
0.00417084
-0.0674144
0.00513064
0.0015273
0.000397964
0.00822368
-0.163369
-0.0681025
0.00644685
0.00530376
0.00461645
0.00432345
-0.186962
-0.0210005
-0.000143941
0.00020469
-0.184743
0.00164751
0.000595322
-0.186822
-0.156218
-0.00165699
-0.000820002
-0.189293
-0.172377
-0.193788
0.00683616
-9.21136e-05
-0.190999
0.00730538
0.00658105
-0.00178725
-0.134315
-0.119197
-0.183082
0.00202739
-0.16877
-0.174305
-0.181844
-0.174932
0.000386411
-0.028024
0.00602091
-0.191611
0.00704799
0.000812399
-0.00263368
-0.0232964
0.0048043
0.00360294
0.00512541
0.00423447
0.00637817
-0.184334
0.00149652
-0.170238
-0.201241
-0.1087
0.00375261
-0.16429
-0.0755613
-0.189866
-0.184961
0.00442443
-0.0285694
0.00908718
-0.0235815
-0.148951
0.00267143
-0.188623
0.00511794
-0.00264969
0.00604301
0.00589179
-0.184391
0.000688655
0.00442875
-0.182243
-0.182123
0.00364815
-0.180911
-0.177321
-0.175977
-0.179263
-0.205592
-0.188752
0.00600084
-0.150728
-0.0270585
-0.000633604
0.0038445
0.00735389
0.00214834
0.00074154
-0.124816
-0.190781
-0.168373
0.00596174
-0.191076
0.00734157
0.00850802
-0.000711103
-0.164462
-0.205396
0.00561267
0.00708908
-0.187429
-0.189927
-0.200372
-0.170069
-0.0809537
-0.135341
-0.00231718
0.000242456
0.00896374
-0.0018549
-0.184184
0.00683142
-0.0530743
-0.130569
-0.206007
-0.17024
0.00498575
0.0027109
-0.160506
-0.183332
-0.187807
0.000301241
-0.0243776
-0.19256
-0.18524
-0.169441
-0.191264
-0.166873
-0.191949
0.0074
0.00262869
0.0043984
-0.189902
0.00355962
0.000948572
0.00332207
-0.123632
-0.0181977
-0.175658
-0.188826
-0.182041
0.00578862
-0.139637
-0.157117
-0.202527
-0.00209819
-0.186235
-0.139925
-0.19864
0.00104171
-0.141736
-0.174728
-0.20304
-0.000621403
-0.027353
0.00541748
0.00720875
0.00717632
-0.195514
0.00299137
-0.18404
-0.178807
-0.198629
0.00742291
-0.183201
0.00709208
-0.185895
0.00620705
-0.114774
0.0068436
0.00688091
-0.16804
-0.191839
0.000101858
-0.164959
-0.0733176
0.00432111
-0.00223566
0.000258705
-0.184624
-0.207643
0.00685176
0.00726923
-0.0021394
-0.0824598
0.00552251
0.0073444
-0.000539824
0.00352395
-0.179759
0.00251393
-0.197579
0.00460549
-0.199994
-0.183425
-0.0657417
-0.165569
-0.193406
0.00620818
-0.00177533
0.00634919
0.00582381
-0.207666
0.00166389
0.00393208
-0.166378
-0.192046
-0.182807
-0.0959258
-0.203113
-0.000869471
0.00914451
0.00277425
-0.190424
-0.190015
0.00458552
-0.183593
0.00421534
-0.175293
-0.174602
-0.197818
0.000687501
-0.167384
0.00701389
0.00331536
-0.198697
-0.192203
-0.000249314
0.00392126
-0.187738
-0.179292
0.000200606
-0.00210328
-0.170573
-0.189368
-0.000613714
0.00751245
-0.191923
0.00179883
-0.149042
-0.000769677
-0.1892
-0.174827
0.000987537
-0.165784
-0.186453
-0.026423
-0.168217
-0.170197
-0.113742
-0.162932
-0.00341871
0.00333919
0.00193121
0.000878814
0.00655012
-0.185521
0.00601688
-0.18763
-0.172553
0.00504921
0.00770878
0.00757637
-5.73051e-05
5.69082e-05
-0.00228447
0.00524764
0.00194173
0.0042198
0.00357648
0.00019799
0.00397112
0.00178432
-0.00174042
-0.00456711
-0.0262765
-0.18086
-0.191672
-0.186792
-0.185637
0.00450593
-0.195807
0.00638616
-0.19892
-0.00244453
0.0024363
-0.155181
-0.18193
0.00485903
0.00787299
0.0020659
-0.206373
-0.0247732
-0.18571
0.00581486
0.00361819
-0.000357174
-0.119805
-0.186034
-0.0110961
0.00440045
-0.000258285
0.00520286
0.003905
-0.0696799
-0.0128021
0.00450858
-0.000105371
0.00756331
-9.60366e-05
-0.110469
-0.182731
-0.194569
-0.0274358
-0.194621
-0.111133
-0.190757
-0.043551
-0.176568
-0.17835
-0.195604
0.00303879
-0.185195
-0.135954
-0.187635
-0.196811
-0.170326
0.00272931
-0.188588
0.00335253
-0.196275
-0.170007
-0.190502
0.0024534
0.00396322
-0.164535
-0.184606
0.00702386
-0.19264
-0.182334
0.000718328
-0.000139143
0.000619762
0.00501723
0.00307916
0.00509364
0.00762447
-0.180924
0.00566911
-0.154877
-0.166945
-0.1903
0.00521811
-0.176547
-0.171264
-0.205059
0.00552636
-0.182824
0.00767991
-0.185378
-0.116706
-0.170279
0.00137338
0.00483922
-0.0026551
-0.194865
-0.185822
-0.00614354
0.00578737
-0.191382
-0.110491
0.00587024
0.00265022
0.00545479
-0.182921
0.00121664
0.00265552
-0.18686
-0.183314
0.0019547
-0.182199
-0.126192
-0.183545
0.00354065
-0.20247
-0.1849
0.00660976
-0.0112242
-0.189421
-0.181537
0.000177113
-0.200119
-0.167206
-0.186958
-0.187263
-0.187096
-0.159355
0.00485174
-0.188266
-0.00184425
0.00686247
0.00531093
-0.0145305
0.00539479
-0.199971
-0.170669
-0.191072
-0.0923743
0.00401915
-0.170813
0.00769109
0.00100415
-0.201992
-0.173234
-0.000441209
0.00596337
-0.166474
0.00439138
-0.179598
0.00061051
-0.186023
0.00798983
-0.188292
-0.0030807
-0.18308
0.00252994
-0.00846367
-0.176272
-0.202852
-0.17668
0.00355512
-0.200243
-0.0730308
-0.18538
-0.156812
-0.00477305
-0.0444962
-0.0189425
0.0040126
-0.11421
-0.144049
0.00291709
-0.159167
-0.179598
-0.00283823
-0.184216
-0.000482091
-0.158588
0.00663672
0.00691673
0.00134099
-0.00948151
-0.188638
-0.189771
0.00434868
-0.0479452
0.00303749
0.00434841
0.0043115
0.00330396
0.00754387
0.00523888
0.00561007
0.00537085
0.00105512
-0.170168
-0.170042
-0.00363432
0.00544531
-0.163955
-0.188586
-0.014844
0.00244262
0.000354301
-0.192248
-0.00435663
0.00594463
-0.000961535
-0.193936
-0.000864045
0.00474993
0.00179026
-0.0235536
-0.193395
-0.171874
-0.0120393
-0.199551
-0.193023
0.00490964
-0.162724
-0.187449
0.00430439
-0.180982
0.00592233
0.00109242
0.000564715
-0.194987
0.000128044
-0.171359
-0.138371
0.00196965
0.000807455
-0.200604
0.00169611
-0.185459
-0.000213765
-0.154342
-0.168648
0.0046221
-0.185975
-0.175639
0.0042907
0.00485791
-0.183751
0.00393478
-0.174194
-0.195859
-0.188568
0.00593143
0.00220943
1.84923e-05
-0.18804
0.00656019
0.00884677
0.00640252
-0.0165571
0.00032292
0.00454181
0.0050168
0.00576409
-0.164315
-0.189327
-0.00120821
0.00150674
-0.171522
0.000929132
0.00114686
0.00585815
-0.167558
0.00254787
-0.000282308
-0.186471
0.001656
0.00193387
0.00361564
-0.15045
0.00067323
-0.0755519
-0.190331
0.00174126
-0.189603
-0.000366854
0.000560794
-0.187222
-0.179019
-0.195768
0.0042821
-0.0446393
0.00477011
-0.198864
-0.17957
0.001848
-0.032408
0.00386452
-0.190286
0.00085017
0.00312807
-0.000655503
0.0025839
-0.00168224
0.00103845
-0.175957
0.00465093
0.0051829
0.000874318
-0.000994906
-0.189753
-0.170106
-0.21034
0.00560369
0.00415301
-0.184067
0.0074526
0.00615829
0.00100512
0.0059624
0.0078706
-0.00971495
0.000788691
0.00118925
-0.0547857
-0.189889
-0.192964
-0.210922
-0.162794
0.00715223
-0.177541
-0.19217
-0.0248429
-0.174374
-0.20442
-0.175429
-0.0931235
-0.00325043
-0.183763
0.00042757
-0.180777
0.00178381
-0.0920127
0.00250106
8.70255e-05
-0.180626
-0.151735
-0.170534
0.00559849
-0.00168021
-0.0025633
-0.00969126
-0.00204222
0.00175149
0.0036876
-0.188753
0.00502703
-0.185717
0.00317755
0.000552111
-0.186856
-0.00204805
-0.000239675
-0.00427884
-0.000161515
-0.12803
-0.204771
0.00152627
0.00081821
-0.162888
0.00488627
-0.166622
-0.184379
-0.0785985
0.00392482
0.000696456
-0.169387
-0.17732
0.00761366
-0.00192012
-0.189172
-0.00278521
0.00406002
-0.0299678
0.00198044
-0.191877
0.00334993
-0.169134
0.00388375
0.003341
-0.0020527
0.00433356
0.00678856
-0.0742085
-0.00218838
0.0012043
0.0016356
-0.185413
-0.189217
0.0018806
-0.0207009
-0.170803
-0.0978517
0.00506544
-0.188368
-0.17606
-0.194322
0.00489034
-0.179413
0.000948435
-0.171441
0.00331204
-0.184834
-0.199998
-0.188858
0.000649399
0.00127952
-0.189299
-0.213346
-0.214875
0.00171074
-0.195178
0.00634094
0.00756089
-0.18665
-0.186525
0.00153188
-0.158682
0.000615105
0.00493375
-0.192844
-0.206026
-0.184581
0.00658273
0.00114942
-0.135509
0.00523124
0.00136839
-0.116015
-0.180879
-0.186535