/*--------------------------------*- C++ -*----------------------------------*\
  =========                 |
  \\      /  F ield         | OpenFOAM: The Open Source CFD Toolbox
   \\    /   O peration     | Website:  https://openfoam.org
    \\  /    A nd           | Version:  10
     \\/     M anipulation  |
\*---------------------------------------------------------------------------*/
FoamFile
{
    format      ascii;
    class       surfaceScalarField;
    location    "300";
    object      phi;
}
// * * * * * * * * * * * * * * * * * * * * * * * * * * * * * * * * * * * * * //

dimensions      [0 3 -1 0 0 0 0];

internalField   nonuniform List<scalar> 
38623
(
0.203148
-0.204162
0.0782754
-0.0772621
-0.0616801
0.0752262
0.127175
-0.140722
-0.00646553
0.0130026
0.0406921
-0.0472283
0.00359726
-0.00195352
-0.021097
0.0194533
0.017076
0.0381822
-0.0376245
-0.0176328
-0.0878821
-0.187472
0.17353
0.101825
0.0831792
-0.0684419
0.0767309
-0.0914681
-0.00796517
0.00809687
-0.00618221
0.00605051
0.00891225
0.0189901
-0.164992
-0.0307621
0.070472
-0.281214
0.241502
0.11291
0.125798
-0.117981
-0.120731
-0.166096
0.146182
-0.005673
0.0255871
0.348233
-0.0316197
-0.354332
0.0377188
-0.157131
0.142466
-0.00272634
0.0173921
0.0366643
0.0476285
-0.0524231
-0.0318697
0.0349168
-0.240358
-0.0369228
0.242365
-0.0103506
0.315287
-0.00198906
-0.302949
-0.00439801
0.244603
-0.011256
-0.228948
-7.82977e-05
-0.0148219
0.296126
-0.281227
0.323591
-0.215948
0.186142
-0.293785
0.16746
0.122578
-0.0391538
-0.250884
0.113591
0.0850219
-0.0857032
0.277624
-0.239047
0.00128038
-0.0398571
-0.143471
0.201278
-0.185169
0.127361
0.0369707
0.22187
-0.0365527
-0.222286
0.0114799
0.378732
-0.370507
-0.0197031
0.0259794
-0.166224
-0.0510876
0.191332
0.171963
-0.142583
-0.364994
0.335614
-0.00868911
-0.000845017
0.00151009
0.00802401
-0.202829
0.231369
0.295052
-0.0142339
-0.0192935
0.0188803
0.014647
0.00555101
-0.0014576
0.000731943
-0.00482537
0.0341166
-0.036318
-0.0374335
0.0396351
0.259134
-0.0171032
-0.246428
-0.0102588
-0.00451693
-0.180612
0.195388
-0.271721
-0.144471
0.124723
0.29147
-0.000499933
9.66325e-05
-0.00696639
0.00736966
0.00233306
-0.178687
-0.107887
0.121701
0.00273012
-0.0165439
-0.0539617
0.0658781
0.212405
-0.22432
0.0435858
0.297842
-0.310478
-0.0309497
0.224631
0.149991
-0.215512
-0.15911
0.23512
-0.13821
0.241135
-0.338045
-0.368267
0.179879
0.301413
-0.113025
0.422725
0.155391
-0.348828
-0.229286
-0.0198817
0.0550592
-0.332481
0.297304
-0.00278386
0.0192603
-0.00779729
-0.00867936
-0.210643
0.156753
0.122685
-0.0687954
-0.000910449
0.001875
0.000983549
-0.00194823
0.00704045
-0.000494618
-0.00721309
0.000667273
-0.00494512
-0.00136458
0.00148756
0.00482204
-0.0136615
0.035106
-0.0300161
0.00857132
-0.0018635
0.000696537
-0.00170142
0.00286833
-0.267874
-0.0852739
0.208478
0.144671
-0.000927599
0.000394142
0.0060844
-0.01465
-0.312242
0.316541
0.0439738
-0.0276646
-0.0607702
0.0444604
-0.00425975
-0.00801527
0.00841399
0.00386112
-0.132142
0.174148
0.125454
0.00963386
-0.00949754
0.0049455
-0.00508212
-0.00831304
0.00379218
-0.00334221
0.00786336
-0.300656
-0.0995226
0.0319119
-0.273549
0.262575
0.0668628
-0.0558934
-0.00541544
-0.00656214
0.00768928
0.00428829
-0.159784
-0.224651
0.240965
-0.376507
0.267176
-0.179559
0.28889
-0.157114
0.133783
-0.0245286
0.0478588
-0.385343
0.277732
0.099928
0.00768614
0.0740531
0.371086
-0.0224163
-0.286532
-0.0423893
0.0431019
0.28582
0.00837174
-0.002575
-0.0085353
0.00273862
0.0197132
-0.00868581
-0.0174925
-0.0536062
0.006488
-0.364165
0.411284
0.060521
-0.0602836
0.0364269
0.279178
-0.267758
-0.171205
0.040348
-0.061873
0.0608268
-0.0393019
0.0179444
-0.135797
0.130723
-0.0128696
0.0842833
0.139573
-0.144262
-0.0795929
-0.0115396
0.00525775
-0.00511948
0.0114013
0.0328161
-0.0278161
0.285452
-0.290453
-0.100433
0.203365
-0.189556
0.086624
0.0419421
-0.0569457
-0.090033
0.105036
0.0778717
-0.0955781
-0.0100611
0.00805955
-0.00049714
0.00249856
-0.0219164
0.0486267
-0.0288015
0.00209115
-0.179961
0.187969
-0.0125249
-0.0587539
0.0952477
-0.0999004
0.0634064
-0.00140642
0.00036081
0.000304213
0.00074134
-0.198504
-0.0624851
0.0867694
0.17422
0.289994
-0.290916
0.0337389
-0.00680667
-0.000244855
0.0064779
0.000573605
-0.328232
0.0538392
0.310731
-0.0363402
0.00354492
-0.00680101
-0.00215938
-0.25973
-0.149352
0.158438
0.250643
-0.00677917
-0.00326369
0.00524262
0.00480037
-0.00727367
2.45612e-05
5.68421e-05
0.00719223
0.373792
-0.0776737
-0.297775
0.00165567
0.062637
-0.082656
-0.190628
-0.189886
-0.0134586
0.039514
0.163832
0.00764678
0.0101974
-0.000767079
0.263725
0.0447725
-0.0672034
-0.241295
-0.0370894
-0.0960631
-0.0239612
-0.0600086
0.0231604
-0.134251
0.171101
-0.00628016
6.78346e-05
0.00628136
-6.85904e-05
0.00130893
0.00662917
-0.0074961
-0.000441849
3.05916e-06
0.00193167
-0.0119958
0.19513
-0.0719475
-0.211064
0.143165
0.291402
-0.13363
0.137356
-0.0408157
0.310047
-0.274083
-0.113636
0.0776735
-0.108132
0.151858
0.0892602
-0.132989
-0.206692
0.0587004
0.150325
0.0602261
-0.0444403
-0.0377021
-0.0050091
0.244827
-0.000456893
-0.239358
-0.118385
-0.264167
0.110832
-0.2656
-0.0475731
0.0541306
0.259042
-0.137323
0.269786
-0.379976
0.247513
0.0447832
-0.236487
-0.0451346
0.236839
-0.000282592
0.000511354
-0.008918
0.00557589
-0.00640541
-0.00444972
0.00527966
-0.0890182
0.0177669
0.155535
-0.00011875
0.00569403
0.000190576
-0.00576585
-0.0296099
-0.295308
0.0291419
0.295775
-0.00288672
0.000734112
0.00945702
-0.00730455
-0.0869125
0.0812654
-0.0904159
-0.0205759
-0.464142
0.379104
0.105615
-0.00817677
0.00273174
-0.00286788
0.00738315
-8.16911e-05
-0.000261038
0.00118515
-0.0129933
-0.00740693
0.0192151
0.00807119
-0.0149206
-0.00341175
0.0102607
0.00806028
0.0129585
-0.00677467
-0.0142441
0.0261473
0.161865
-0.148367
-0.039646
0.146423
-0.00252522
-0.0179898
-0.125911
-0.147451
0.139532
0.0362342
-0.028314
0.325309
0.0651271
-0.145558
-0.244878
-0.0951315
0.210293
-0.175171
1.32597e-06
0.00578479
-0.00583241
4.6224e-05
0.0337872
0.13034
0.0498712
-0.110612
-0.156305
0.217045
-0.0784645
0.110151
0.00820081
-0.00829033
-0.000193186
0.135828
-0.144911
-0.21856
0.227642
-0.0974264
-0.187146
0.160269
0.124304
0.0741538
0.273844
-0.103968
-0.24403
0.276131
0.00874667
-0.0268075
-0.25807
0.418216
-0.173885
0.0657155
0.240294
-0.0461929
-0.238086
0.0439848
-0.0734609
0.0402543
-0.0198378
0.0530445
-0.00175648
0.000822604
0.00682944
-0.00589551
0.0170554
-0.298802
0.311652
-0.0299066
0.0506326
-0.00230401
-0.0427797
-0.00554913
0.191889
-0.0777332
-0.343097
0.228941
0.078782
-0.0957671
-0.0615715
0.0785557
-0.0263438
0.311719
0.0992804
-0.384655
0.0376914
-0.0384357
0.0269662
-0.0262219
-0.0522536
0.0409645
0.254681
-0.243393
0.0158359
0.095251
-0.0879249
-0.211277
0.120237
0.180544
-0.0895037
-0.0118393
0.015097
-0.00885102
0.00559321
0.00239928
0.00993679
-0.00817092
-0.00416517
0.0418796
0.29757
-0.300164
-0.039289
0.084755
0.028229
-0.045617
-0.0673673
0.00241329
-0.00928391
-0.00127493
0.00814563
-0.102998
0.105772
0.326271
-0.00509207
-0.290882
-0.0302978
-0.00264393
0.307477
-0.287776
-0.133834
0.132347
-0.0444694
0.0459561
-0.00609834
-0.00154895
0.00687447
0.000772803
-0.168562
0.308966
0.154686
-0.29509
0.240906
0.107316
-0.212394
-0.126507
0.0332224
0.127604
-0.0343197
0.0176614
0.00382818
-0.0178924
-0.152239
-0.219201
0.146789
0.00426241
-0.00513838
-0.00201076
0.191398
-0.367408
0.247926
-0.0719135
-0.01326
0.000131715
0.0103071
0.00282117
0.260338
0.0388244
-0.2616
-0.0375617
0.0451581
0.220026
-0.0456173
-0.219566
-0.175344
-0.0287612
0.187053
0.0170516
-0.153684
0.129963
-0.0973617
0.121082
0.0035026
0.0219738
-0.0123268
-0.0131487
0.0108008
0.00537699
-0.0126745
0.0756613
0.033802
-0.0691153
-0.092741
-0.134537
0.0766298
0.150645
-0.0317522
0.0714756
-0.311411
0.271689
0.322082
-0.313147
-0.0235852
-0.164933
0.0707285
-0.00424017
0.00468181
0.00761786
-0.00680381
-0.000804409
0.00515438
0.00245386
0.231655
-0.151935
-0.00255537
0.00423014
0.00598898
-0.0076639
-0.271346
0.0566593
0.0232879
0.191398
-0.20213
0.24446
-0.0962925
-0.201418
0.112522
-0.140105
0.228999
-0.0385984
-0.2561
0.0457224
0.248977
0.0981832
-0.133447
-0.206171
0.241435
0.000336578
6.88817e-05
-0.00687733
0.0064722
-0.000507945
0.00637956
-0.00842701
0.00192994
-0.00582521
-0.000515621
0.00441074
0.153018
-0.120812
-0.140339
0.282808
-0.0252873
-0.260162
-0.192707
-0.219821
0.200533
0.211994
-0.00271361
0.00688878
-0.00593146
0.00924648
-0.131036
-0.0300945
0.151882
0.00888153
-0.00642981
-0.0104169
0.00265991
-0.00939869
0.00915207
-0.0352342
0.0171423
0.0274135
-0.00932187
-0.0443537
-0.14254
0.0565019
0.130393
0.188148
-0.00563932
-0.057242
-0.125266
-0.0911614
0.21869
0.062183
-0.189712
0.26868
-0.0358718
-0.260625
-0.00779142
-0.00057529
0.00786673
0.268312
-0.261482
-0.0385823
-0.335873
0.185857
-0.0185452
-0.00315739
-0.00119626
0.00249005
-0.004426
0.0010883
0.0091078
-0.00577008
0.127074
-0.0166773
-0.101152
0.0352301
-0.261733
-0.000218017
0.00666944
-0.00105501
-0.00539605
-0.0162919
-0.0103474
0.0110343
0.0156051
0.0501165
-0.0297577
-0.36403
0.343671
-0.0392449
0.0378929
-0.00623662
0.000242267
0.000160241
0.00583394
0.261692
-0.0597403
-0.254205
-0.0899409
0.277718
0.021251
0.0317044
-0.0147033
-0.0382522
-0.000147162
0.00656923
-0.00691671
-0.216957
0.0437937
-0.174832
0.0529334
-0.0120204
0.133918
0.306514
0.0345688
-0.306497
-0.0345888
-0.154483
0.181135
-0.210221
0.18357
-0.00240601
8.91385e-05
0.000397782
-0.0477469
-0.159343
-0.389117
0.396004
0.00459249
0.0646703
-0.0426703
0.0161839
0.0103019
0.000149839
-0.0064541
-0.00399774
-0.173998
-0.245999
0.0270564
-0.0079498
0.00207629
-0.0211828
0.0706758
-0.326113
0.355009
-0.0995711
-0.0100643
-0.00547532
0.00918475
0.00635502
-0.00139311
0.00235581
0.000912435
-0.255571
0.039091
-0.0436474
0.260126
0.00120755
-0.0118252
0.0106207
0.0107845
0.004691
0.049197
-0.00100264
-0.0060233
-0.0952831
-0.263389
0.0851224
-0.0567525
0.180811
0.0710715
0.015038
-0.342579
-0.0212847
-0.0110811
0.00241979
-0.000622624
0.0840386
0.0213008
-0.0205844
0.0955319
0.343569
-0.318204
-0.120897
0.054628
-0.175992
0.239233
-0.117868
-0.00488398
-0.00126982
0.00168172
0.00447216
-0.363537
0.362659
-0.0315449
0.0324225
0.10076
-0.0146755
-0.0578553
0.00458053
-0.00747945
0.00189626
0.00688351
-0.0040213
0.00430474
-0.000605457
-0.00662572
0.00292641
-0.0690651
-0.271935
0.0727019
0.268298
-0.213598
-0.139051
0.000661375
0.000683076
-0.0401003
0.063769
-0.24085
0.217183
0.00102516
-0.00798539
-0.00121647
-0.104284
0.1634
0.0275886
0.239754
-0.22638
0.0611928
-0.241982
0.246669
-0.00983367
-0.00900746
0.00558112
0.0127777
0.00450547
-0.00906343
-0.00821985
-0.0293843
0.00683479
0.00658288
0.0159666
0.00877798
0.0163249
0.133764
-0.189765
-0.0882607
0.00446988
0.017473
-0.00428131
0.000414804
0.000665203
0.00271477
-0.0037948
0.0748858
-0.169086
0.195837
-0.10164
0.112879
-0.158158
-0.169523
0.0422778
0.000399419
0.00715261
-0.00728869
-0.000263355
0.0336506
-0.0540153
-0.196592
0.00563186
0.000930871
-0.000648459
-0.00591414
0.241601
-0.281534
0.0788053
-0.0388719
0.00715484
-0.0138329
0.00860969
0.0709858
-0.0462506
-0.199569
9.6325e-05
-0.000456751
-0.00458481
-0.0518501
-0.258742
0.065027
0.245568
0.181226
0.0273425
-0.181701
-0.0268671
0.00596527
0.00568811
-0.00316879
-0.00848461
0.00320682
-0.00013241
-0.00423914
0.00116475
0.0554126
-0.259435
0.389592
-0.185571
0.00804389
-0.00852982
0.00314585
-0.0542405
0.0499093
0.0420226
0.00305654
-0.0140059
-0.0026271
-0.00195074
0.00318474
0.00432326
-0.00747961
-0.00340578
0.00310102
-0.00442091
0.0056246
-0.0106046
0.00362571
-0.00672827
-0.171562
0.00562929
-0.00501287
0.00308921
-0.00370559
-0.255946
0.217649
0.00611418
-0.00225366
-0.18382
0.00863702
0.000630301
-0.00866227
-0.000605088
0.00790218
-0.00963033
-0.013084
0.0148121
-0.0330099
-0.0362973
0.0204808
0.0488261
0.00883788
0.00197542
-0.026408
0.0193922
-0.0137017
0.0207175
-0.0994997
-0.271005
-0.0200022
-0.0143556
0.00611781
-0.00158
0.00315157
-0.00410723
0.283299
0.0355046
-0.0550787
-3.51328e-05
-0.00620024
0.00171346
-0.00345429
0.0594497
0.056732
-0.0374001
-0.289209
0.0415978
-0.0386545
0.286265
0.0870874
-0.14262
-0.070973
-0.0164792
-0.000569951
0.0126866
0.0043623
0.00787849
-0.000522765
0.00481246
0.00547602
0.108198
-0.0517995
-0.0816333
0.0252333
-0.00317188
0.00620346
-0.0195465
-0.00126761
0.361845
-0.341031
0.00217791
-0.00751386
0.00557794
-0.00162043
0.000703491
0.000116777
-0.00502404
-0.000947565
0.00585498
-0.283668
-0.207601
0.155396
0.0652441
-0.0354463
-0.165753
0.0234877
0.15345
-0.0111849
0.0124257
0.012301
-0.0139222
-0.0108046
0.0037559
-0.0102027
0.014518
0.00241676
0.00767685
-0.00513123
-0.0049624
0.200303
-0.0944974
-0.196968
-0.0910421
-0.0229483
0.0619944
0.0519963
0.00856618
-0.170625
-0.142987
0.30505
-0.00763686
0.00122958
-0.223815
-0.00981578
0.19353
0.00668963
0.00278268
-0.00705567
0.00266724
-0.0216879
-0.00807707
-0.00191262
0.000929519
0.00906006
-0.156958
-0.243849
0.0630652
0.337742
-0.24018
0.273853
0.132043
-0.165718
-0.0089751
0.00873333
-0.00959193
0.00375536
0.0124254
-0.0123523
0.00656886
-0.101156
0.0817561
0.400702
-0.419073
-0.00220692
0.348956
-0.466904
0.141638
-0.0236892
-0.000837053
-0.00630936
0.00125525
0.00589098
-0.0793248
-0.13739
0.161191
0.0555242
-0.000365908
-0.00808897
-0.0367635
0.0250046
0.0100925
-0.0042404
-0.0139292
-0.00378869
0.00480593
0.0143171
-0.0153341
0.00646499
-0.000169362
-0.00680356
-0.000175715
-0.00597368
0.000367523
-0.000822765
0.00281117
0.0479763
0.167372
0.0291121
-0.153988
0.262592
0.194803
-0.303406
0.270022
-0.413603
0.245507
-0.101925
-0.0660252
0.0527905
-0.0131779
0.0101257
0.0146971
0.0798113
-0.261313
0.154898
0.0266032
-0.0409218
0.0256448
0.255242
-0.00790605
-0.238768
0.00284899
-0.00137367
-0.00827905
-0.148409
0.0437559
-0.0386037
0.143257
-0.00143231
0.0010161
0.00809296
-0.208985
0.167947
-0.218693
-0.000131157
0.0648578
0.310169
0.00370731
0.130477
-0.199047
0.0063837
-0.00359514
-0.00194745
0.00335533
0.00218693
-0.0382888
-0.108566
0.121466
0.0253893
-0.30199
0.0012763
-0.00565473
-0.000478867
-0.00704548
-0.00895496
0.00363611
-0.0188612
0.250431
-0.163513
-0.0132404
0.00366896
0.00314979
0.00642175
0.0678437
-0.0626809
0.0600812
-0.0166548
-0.235894
0.0116982
0.187639
-0.353045
0.232016
-0.0666094
0.338284
0.0336862
-0.0230115
0.0102398
0.00134522
0.103446
-0.14975
0.188206
0.14268
0.00619415
0.00779692
0.242174
0.0506311
-0.0522568
-0.240549
-0.00365216
-0.0111423
0.016186
0.162581
-0.128896
-0.0350666
0.213103
0.00230768
0.00511914
0.00572314
0.00124275
-0.00286185
0.00914769
-0.00618714
8.87395e-05
-0.00304935
0.0111563
0.213111
-0.19668
-0.385452
-0.32978
0.0868324
0.013593
-0.254063
-0.00201411
-0.000468449
0.0218329
0.0203086
-0.0291328
-0.0130088
0.00721649
0.0035681
-0.00274068
0.00564951
-0.00355223
0.00165823
0.00769022
0.0334129
-0.0483875
0.00728424
-0.0443906
0.0725761
0.0474758
-0.120922
-0.0554534
0.0962145
0.0801606
0.00425941
-0.00567676
-0.000153448
-0.00892264
-0.00335596
0.00434873
-0.00739795
-0.0502099
0.453358
0.00750578
0.106785
-0.0158547
-0.0571287
-0.00534834
0.00397167
0.00806615
0.0753472
0.0833122
-0.0576553
-0.101002
-0.0206634
-0.0107586
0.0177608
0.00471026
-0.0271333
-0.00696138
0.14252
0.0584854
-0.124377
-0.163409
-0.019593
0.0440913
0.138911
-0.0490012
0.219157
0.0427497
-0.212907
-0.00302581
0.00589033
0.00992802
-0.0127925
0.259106
-0.173875
0.166787
-0.252018
-0.142875
-0.0538085
0.0898718
0.106811
0.0116412
-0.00893215
0.00811673
-0.00851945
0.00142812
-0.226205
0.169289
-0.00762412
0.0141974
0.00684076
-0.0134141
-0.0166797
-0.00534095
0.00778672
-0.00139666
0.00886599
-0.00367105
0.0117317
-0.126679
-0.133508
0.348237
-0.305433
-0.0274384
-0.0153647
-0.00501202
-0.000570637
0.00534152
0.000241075
-0.12982
0.170475
-0.197613
-0.255087
0.273562
-0.145113
0.12664
-0.372345
-0.0309391
0.352874
0.0504091
-0.0830855
0.124839
-0.0800419
-0.0243085
0.0184023
0.327988
0.00240266
0.00794531
-0.00301412
0.00220286
0.000679158
0.0544503
-0.0380141
-0.00263538
0.00473475
-0.00512528
-0.00284704
-0.00470206
0.00887587
-0.0173637
0.0147234
-0.00957036
0.00408878
-0.363402
-0.144349
0.224083
0.0104787
-0.0335973
-0.00442287
0.0275414
-0.237811
-0.0230255
0.0036549
0.00706762
-0.00443388
0.0276725
0.341707
-0.395723
-0.00273798
0.000506757
-0.00539309
0.149329
-0.0601511
-0.168503
-0.1306
0.198614
-0.00312245
0.00802773
0.00865027
0.00867399
0.0044057
-0.109297
0.00398618
-0.00901257
-0.194168
-0.266413
0.0688697
0.142586
-0.0737764
-0.137679
0.0193821
0.00878813
-1.97928e-05
-8.65167e-05
-0.00645844
0.00656475
-0.0153358
0.00851897
0.00203049
0.00478641
-0.23714
-0.0169234
0.053295
0.200766
-0.0380973
0.142884
-0.184379
0.187055
-0.215569
0.00160767
-0.430577
0.0169538
-0.0054505
-0.0102253
-0.0412417
-0.156142
-0.143922
0.0505933
0.249473
-0.0448819
0.140113
-0.139585
0.019254
-0.0202
0.0212546
0.00749263
-0.00531747
0.00452991
0.0050176
0.00978036
0.0538942
-0.0478379
0.382841
-0.39078
-0.199736
0.207674
-0.00620458
0.107003
-0.308753
0.373714
-0.0132362
-0.261057
0.271306
0.00298768
-0.0189382
0.0213712
-0.0166719
0.0142391
0.0452963
-0.00068267
-0.0341351
-0.0152038
0.00541245
-0.0102108
-0.148738
0.0313287
0.159894
-0.0424848
0.206143
-0.0598212
0.0440474
-0.19037
-0.0763498
0.049408
0.0671963
-0.149516
-0.0879966
0.00368278
-0.198804
0.0477168
0.147404
0.0452451
0.0241847
-0.0294289
-0.0400014
-0.00165649
0.000885644
0.00765432
-0.0565438
0.236112
0.021074
0.00623629
-0.0150363
-0.0122737
-0.00623822
0.00496262
-0.0047928
-0.0361716
0.00736696
0.00889108
0.00475822
-0.00476776
0.0165179
-0.0170227
-0.0129351
0.0134399
-0.0678682
-0.381959
0.077482
0.0142051
-0.015938
0.00944995
-0.00771635
0.281133
-0.119234
0.0945092
0.174054
0.0855476
0.068722
-0.0834191
-0.0708513
-0.000110667
-0.00813119
-0.000561918
0.00880359
0.00242127
-0.0036078
0.0080162
0.0153719
-0.0177923
0.00839712
-0.00842131
0.00744468
-0.0074205
-0.0127879
-0.00197651
0.00293914
0.0760401
0.158862
-0.0842562
-0.330759
-0.0309148
0.0219887
0.339685
-0.378682
0.0271136
0.00765358
-0.0200743
-0.0166846
0.0224033
-0.00496442
0.00651719
-0.000136905
-0.000143012
-0.00728958
0.00756945
-0.0160242
0.212067
-0.520146
0.0980776
-0.00850667
0.0323499
0.0176567
0.0359929
0.00934161
-0.011218
0.0271366
-0.0236478
0.0215157
-0.133781
-0.258519
0.0383599
0.35394
0.000145618
-0.00498467
0.000413093
0.207561
0.151737
-0.252295
-0.0959497
0.0707897
0.00354144
0.00369889
-0.440356
-0.0680687
-0.0117199
0.115086
-0.022301
-0.0900129
-0.00277211
0.0354928
0.0865676
-0.00473381
-0.00559642
-0.0210633
0.287198
-0.0784958
0.0063154
0.00253919
0.000292968
0.00386175
-0.00968556
0.0220436
0.014149
-0.0219948
0.0081619
-0.0768963
0.0243737
0.0443602
0.234419
0.019768
-0.217791
-0.036396
-0.304271
0.29399
0.0183652
-0.00808489
-0.0293069
-0.325761
-0.0503147
-0.267936
0.124082
-0.00355733
0.00575355
-0.00683894
0.00464333
-0.013002
-0.00490533
-0.00644533
-0.261315
0.230735
0.0512445
-0.0403777
-0.0344937
-0.0409272
-0.267352
-0.0419291
0.257432
0.254076
-0.0431232
0.0463979
-0.143829
-0.0513033
0.413252
-0.0499159
-0.128216
-0.244475
0.188449
-0.238278
0.212526
0.212907
-0.187155
-0.0174384
0.0873259
0.241831
-0.00163396
-0.00494004
-0.0013134
0.00788747
-0.262794
-0.129591
0.362227
0.0301571
-0.00547337
-0.00081815
0.0109021
-0.0046106
0.071222
-0.125971
-0.050443
0.105193
-0.220868
0.149869
0.33359
0.00795071
-0.00498948
-0.207357
-0.0274091
-0.27836
0.0902027
0.215566
0.0083564
0.00132814
-0.0188248
-0.0039235
0.0138161
0.0207872
-0.0178661
-0.0182572
-0.306146
-0.116386
0.0591301
0.205037
-0.0649664
0.00118322
-0.000225627
0.00476567
0.0051844
-0.00204259
-0.376513
0.00411353
0.00653643
-0.00780079
0.0286902
-0.360282
-0.0319462
-0.425868
0.385884
-0.0278843
0.173214
0.0181972
-0.0287589
-0.302586
0.0998834
0.0170456
-0.276473
-0.0385266
0.297957
0.0120436
0.0197104
-0.00276114
0.00709204
-0.0057631
-0.0205493
0.00351386
0.0218414
-0.00715276
-0.000311631
-0.00215111
0.0062413
-0.0112294
-0.386991
0.427696
-0.0294757
0.00885475
-0.275164
0.0491494
-0.0413367
0.0312665
0.0389202
0.00259502
-0.140176
0.251412
0.0835658
0.0150203
0.339147
-0.342213
-0.0119545
0.384537
-0.368094
-0.000672738
-0.00520458
-0.149527
0.150409
-0.205078
0.227674
0.0130304
-0.0356262
-0.00388672
0.0284361
0.0260832
-0.0290106
0.252805
-0.00258178
-0.221214
0.0649063
0.153653
-0.00809231
-5.68943e-05
0.00820602
0.0361534
-0.232244
-0.40048
-0.0414655
-0.0249589
-0.0642155
0.0104617
0.259605
-0.0169797
0.00197854
-0.0462723
0.12507
-0.127605
0.0488081
-0.0317287
0.0252705
-0.212253
0.153636
-0.00330565
-0.00476448
-0.00671852
0.0147916
-0.0502148
0.0567657
0.00629029
0.200736
0.0315701
-0.195337
-0.00429319
-0.00670323
0.00124748
0.045936
0.0727362
0.0594951
0.257091
-0.0619066
0.0227087
0.00446841
-0.0118054
0.00953084
-0.062138
0.127955
0.0401617
-0.0320089
0.0529056
-0.0610591
0.0256993
-0.019678
-0.00452524
0.00263597
0.00448421
0.107346
-0.0287691
0.0866469
-0.165223
-0.0256274
0.0472584
0.0121646
-0.0337957
0.0975359
-0.29904
0.311693
-0.228602
0.181909
-0.302213
0.00511104
0.000214472
-0.0100225
0.00644564
0.00597613
0.0137704
-0.197039
-0.0552177
0.164659
0.0875974
0.0953465
-0.0979501
-0.0350207
0.171191
-0.0770567
0.071762
-0.165897
0.277164
-0.2861
0.0391432
-0.0302067
0.235086
-0.126938
0.17109
-0.279238
0.296216
-0.300981
0.0348254
-0.03006
0.351861
-0.29248
-0.0423356
0.340245
-0.0118946
-0.24396
-0.0296266
0.369119
-0.0295419
-0.00123038
0.0259799
-0.11624
-0.287147
0.254931
0.148456
-0.0271275
-0.0467546
-0.102061
0.151752
-0.021151
-0.26033
-0.366809
0.00984387
-0.0300248
0.177143
-0.0328927
-0.133096
-0.0294302
0.0278276
-0.0133186
0.068947
0.231132
-0.0579052
-0.293061
0.0187624
-0.0293555
0.355387
-0.344794
0.191463
-0.083447
0.0104054
-0.0266121
-0.18037
0.196577
-0.0392786
0.253175
-0.242908
-0.0310482
0.362087
-0.0327868
0.208468
0.0250588
0.0224147
-0.0209456
-0.265268
0.254579
-0.107695
-0.189673
0.0570849
0.187216
-0.0258396
0.0412066
-0.0409935
-0.000894943
-0.0130774
-0.00824571
0.0314783
0.0211753
-0.0306097
0.00131733
-0.0031198
-0.00316193
0.225947
-0.0368632
0.00597838
-0.00565089
0.0281507
-0.036596
0.182368
-0.173921
-0.330767
0.170883
0.228831
0.295
-0.0158756
0.00234827
-0.281472
0.281679
0.0324062
-0.0454044
-0.0483259
0.283853
-0.0298467
0.0274531
-0.28146
-0.0902092
0.547067
-0.0291613
0.289115
0.0371111
-0.0300101
0.00139776
0.0132976
0.0345031
-0.0142762
-0.0298766
0.0239527
0.0149341
-0.00436338
-0.205545
0.194965
0.259503
0.133802
-0.0414447
0.21975
-0.185651
0.0249198
-0.0590209
0.223731
-0.174998
0.169551
-0.207039
0.0912278
-0.053741
0.170889
0.120807
-0.0719444
0.0846463
-0.00504654
0.0204192
-0.100017
0.175291
-0.0772462
0.073145
0.050354
-0.0248603
0.021764
0.2121
0.0957957
-0.0841647
0.302186
-0.0163855
0.00815777
-0.293958
0.144012
-0.129221
0.115696
-0.130492
0.220432
-0.234938
-0.0641467
0.0786516
0.250869
-0.435744
-0.0736444
0.167612
-0.0668939
0.0932593
-0.193978
0.300969
0.0172761
-0.0160592
0.168887
-0.16805
0.0307322
0.0144405
0.325929
-0.322902
-0.0174666
0.267594
-0.304056
0.0144858
0.0219761
-0.0498368
0.200033
-0.139789
-0.0339843
0.215839
0.214046
-0.194856
0.135135
-0.154325
0.214226
-0.139261
0.15669
0.0560581
-0.0623853
0.175877
0.00927697
0.155264
-0.147389
-0.0171553
-0.0241236
0.135201
-0.121243
0.0101658
0.10516
-0.0544861
-0.0819493
0.0312801
0.0690846
0.0218464
-0.00628151
0.167003
-0.0731721
0.0455026
-0.0391255
0.0439768
0.0780104
0.217027
-0.119747
0.153553
-0.130352
0.198903
-0.0526452
0.0741748
0.206377
0.0871911
-0.0814674
0.0879114
-0.0501189
0.00870903
-0.0161436
0.279582
-0.272148
0.278276
-0.0151116
0.0110356
-0.2742
0.225913
0.0277036
0.0139768
0.228802
-0.114487
0.120771
0.279259
-0.19215
-0.039787
0.0416157
-0.294288
0.292459
0.314244
-0.305505
-0.005009
-0.00372788
0.0249084
0.00685139
0.196569
-0.340744
0.181783
0.189619
-0.157177
0.315416
0.0119136
-0.0120418
0.218665
0.134356
-0.124218
-0.240523
-0.0834915
0.112952
-0.0837059
0.0788312
0.163735
-0.1729
-0.256246
0.184935
0.244211
0.172465
-0.159838
-0.00335396
0.140954
-0.13375
0.20889
-0.19559
0.0647086
-0.00582655
0.287265
-0.31616
0.0347222
0.338538
-0.0287896
0.00449555
-0.0942599
-0.258872
0.081197
0.190491
-0.367361
0.248344
-0.0316728
0.273845
0.032838
-0.27501
0.0460122
-0.0501936
-0.0216586
0.0964514
0.227818
-0.151918
0.0573619
0.159463
-0.0574305
0.283346
-0.282921
0.0570058
-0.00834159
0.276655
-0.258559
-0.128762
0.0478741
-0.346595
-0.0458604
0.344581
0.0588755
-0.0814344
-0.0944675
0.117027
-0.070293
0.176456
0.242075
-0.00791493
0.0248839
-0.00217678
0.275405
-0.371172
-0.171913
0.376752
-0.20807
-0.31246
0.143779
0.190111
0.374565
-0.300212
-0.0511204
-0.0232351
0.00267216
0.00094573
-0.00875246
-0.00071263
0.233026
-0.325524
0.0411988
-0.0248522
0.170097
-0.102416
0.306884
0.28615
0.1555
-0.27963
-0.162018
-0.200157
0.210429
-0.309312
-0.0115895
-0.0664501
0.378741
-0.0895123
0.0179413
-0.0222336
0.0135756
0.0243511
-0.00219937
-0.159124
0.155667
-0.125765
0.0836116
-0.105057
-0.0890838
0.0882074
0.059756
-0.133278
0.0633086
0.131316
-0.061342
-0.062481
0.0954781
0.0125075
-0.255827
0.156738
-0.0669809
-0.0364917
0.201991
0.0116424
0.0225872
0.165457
0.147527
0.0992698
-0.0297712
-0.070713
0.0663532
-0.270767
0.275125
-0.186827
0.0532457
-0.0506625
0.0798876
-0.14941
0.161839
0.213484
-0.237352
0.14042
0.150393
-0.0534615
-0.0627924
0.0427942
-0.0973202
0.0692036
-0.023072
0.0170978
-0.00607566
0.0867651
-0.0797379
0.199351
-0.292324
0.298669
0.0833963
-0.0897411
0.0426983
0.0562344
0.0321323
0.233324
-0.228588
-0.0368681
-0.0589018
0.281785
-0.293175
0.232437
-0.0676644
-0.135605
0.0366892
-0.00506018
0.000893664
0.00289673
-0.296952
0.0257888
-0.178424
0.0871612
0.178027
-0.281885
0.265099
0.14449
-0.127705
0.0144829
-0.352097
0.360227
-0.0226121
-0.124941
0.299263
0.186159
-0.297947
-0.0970442
0.124791
-0.158276
0.20404
0.218451
-0.101484
-0.256227
0.276994
-0.0148626
-0.203557
0.233119
-0.0553102
0.0384437
-0.238071
-0.206882
0.264116
0.180837
0.0157343
0.000631271
-0.0266569
0.0102914
-0.0732217
0.0246723
-0.22293
0.271477
0.345719
0.207471
-0.32773
-0.225461
-0.203083
0.188874
0.190665
0.230028
-0.138939
0.0800018
-0.209423
0.153135
-0.0458026
-0.0227344
0.00605612
-0.272114
-0.0792102
0.154284
-0.201432
0.0250819
0.208743
-0.0323915
-0.194542
0.158213
0.207212
-0.398436
-0.023109
0.123552
-0.0391239
0.00077426
-0.00487608
0.34264
-0.34237
0.00668895
0.217066
0.118615
-0.0493681
0.0262026
-0.111085
0.193861
-0.162493
-0.0636453
0.0591794
-0.0928528
0.012995
0.28985
-0.0511584
-0.251687
0.211586
0.155949
-0.227115
-0.134983
-0.0904489
0.215715
0.00971674
-0.0064709
-0.00592672
0.0271346
0.311233
-0.0343292
0.258831
-0.0370904
0.371099
-0.368034
-0.0341137
-0.335088
0.339782
-0.0356093
0.259656
0.0466834
-0.0380258
-0.310701
-0.030068
-0.324249
0.319268
0.0405004
-0.0355193
0.354809
-0.391354
0.0629635
-0.0264196
0.270844
0.0364295
-0.0301101
-0.377487
0.392532
0.0160405
-0.0310853
0.352084
0.00443256
-0.0302448
0.377814
0.0343589
-0.379156
-0.0330168
-0.416155
0.496338
-0.0510647
-0.029118
-0.347164
0.0214498
0.348803
-0.0230887
0.331818
0.0432136
-0.339884
-0.0351483
-0.0306473
0.0383467
0.280906
-0.0301383
-0.323398
0.328636
0.0303792
-0.035618
0.0694617
0.230891
-0.0408499
-0.0596337
0.163467
-0.241868
0.238123
-0.154532
0.0139849
-0.0102093
0.00570855
0.0847233
-0.0283282
0.11242
-0.165245
0.132636
0.269572
-0.18182
0.266188
-0.0333731
0.292296
-0.243993
-0.0107289
0.00115365
0.144774
-0.192869
-0.0386458
0.0296345
0.164275
-0.025971
0.291264
-0.257808
0.271866
0.0204389
-0.0344974
0.334681
0.0107182
-0.034166
0.277924
0.0174398
-0.0365331
-0.34646
0.290968
-0.0397931
0.174723
-0.0427143
-0.167605
0.266117
-0.331946
0.292185
-0.122894
-0.00334439
-0.0129823
-0.268385
0.284713
0.0408695
-0.0443736
0.124971
0.0608073
0.0182475
-0.162467
-0.220267
0.077836
-0.0900932
0.232524
0.216061
-0.356642
0.0206611
-0.0513148
-0.0151485
0.206354
-0.223217
-0.219892
0.236755
-0.178026
-0.119985
0.0885893
-0.256927
0.265499
0.0280673
-0.0366401
-0.27602
0.304682
-0.0320064
-0.256533
0.260823
-0.0452116
-0.270845
-0.0427859
-0.259232
0.261507
0.0304445
-0.0327179
0.257435
-0.261562
0.0497921
-0.0456643
-0.411052
0.332467
0.108375
-0.0297906
-0.274504
0.286505
0.0181435
-0.030145
-0.3772
-0.0504832
0.457871
-0.0301865
0.341494
0.112951
-0.424052
-0.0303923
0.339506
-0.324451
0.0157012
-0.0307567
0.359502
-0.350689
0.021813
-0.0306264
0.0394088
-0.287003
-0.010944
0.0102862
0.287923
0.17729
0.206805
-0.233702
0.178206
0.135431
-0.119775
0.271427
-0.193346
0.308348
-0.207859
-0.016877
-0.243984
0.0658709
0.118535
-0.121097
-0.263705
0.0377768
-0.0333033
-0.0452912
0.0179018
-0.032414
0.0493108
0.322533
-0.0303508
0.0401636
-0.0374346
0.360539
0.0295382
-0.0305752
-0.262495
0.0352251
-0.0435757
0.0264474
-0.0301073
-0.0307296
-0.268571
0.0526488
-0.0456397
-0.324056
-0.0569714
-0.0300243
0.00490916
-0.0300255
-0.13208
-0.287496
0.203287
-0.268339
-0.0413526
0.0534579
-0.162349
-0.0260919
-0.22082
0.2832
-0.158634
0.0229612
0.140086
-0.297046
0.260272
-0.224006
0.199646
0.189231
-0.174939
0.00286518
0.00192825
-0.000534127
-0.0797076
0.0765708
-0.186536
-0.166085
-0.00493975
0.0310831
0.152811
0.261933
0.193798
-0.0307053
-0.324789
0.046313
-0.254249
-0.0339316
0.0597228
-0.0501905
0.0431032
-0.0526352
-0.000329092
0.0039594
-0.246831
0.204828
-0.332115
0.101316
-0.0243541
-0.00346178
0.154865
0.0570666
-0.0486831
0.390818
0.0325471
-0.0322205
0.398595
-0.022602
-0.0517132
-0.32428
0.0429225
-0.0353533
0.210384
-0.312116
0.058711
-0.248423
0.0116858
0.0302777
0.0469239
0.226726
-0.23802
0.167244
-0.0440941
-0.260785
-0.0809849
0.302706
-0.292436
-0.0952701
0.101165
-0.000187069
-0.274731
0.0642531
0.0622409
-0.184686
-0.00143758
0.228347
-0.10775
-4.16034e-05
0.306219
-0.298019
0.15217
-0.0822992
0.108336
-0.00895514
0.00192701
0.0439647
-0.0522678
0.0859892
0.0273317
0.11233
-0.0546402
-0.353563
-0.0727132
0.231735
0.00857453
0.149583
-0.162522
0.0438644
-0.0553644
-0.0359269
0.22789
0.258076
-0.175964
-0.236836
0.154724
0.155856
-0.0476243