/*--------------------------------*- C++ -*----------------------------------*\
  =========                 |
  \\      /  F ield         | OpenFOAM: The Open Source CFD Toolbox
   \\    /   O peration     | Website:  https://openfoam.org
    \\  /    A nd           | Version:  10
     \\/     M anipulation  |
\*---------------------------------------------------------------------------*/
FoamFile
{
    format      ascii;
    class       volVectorField;
    location    "300";
    object      U;
}
// * * * * * * * * * * * * * * * * * * * * * * * * * * * * * * * * * * * * * //

dimensions      [0 1 -1 0 0 0 0];

internalField   nonuniform List<vector> 
23845
(
(0.673377 -0.107031 6.44386e-21)
(0.482983 0.100064 -3.02711e-21)
(0.28519 -0.02815 2.02754e-20)
(-0.128905 0.0133721 5.93557e-22)
(0.111545 0.0623027 3.45456e-21)
(0.58849 0.00407302 -7.18761e-22)
(0.876507 -0.0421207 -9.0486e-21)
(-0.0701499 0.063636 -2.18845e-22)
(0.628953 0.0167144 7.98856e-24)
(0.74666 0.0841073 -2.51364e-21)
(0.457418 -0.0435468 1.78488e-21)
(0.565344 -0.00830667 5.68743e-23)
(0.700841 0.00588651 6.18449e-24)
(0.608444 0.0124756 2.26326e-24)
(0.714647 0.0420978 -1.49311e-20)
(0.762541 0.0553615 -1.87479e-22)
(0.659606 0.013104 -1.94256e-23)
(0.556072 -0.00748499 -1.10214e-22)
(0.684882 -0.0080274 1.88755e-22)
(0.619654 -0.00819939 1.21608e-21)
(0.800354 0.091362 1.13184e-20)
(0.422042 -0.0338224 4.29062e-21)
(0.925767 -0.0540976 -2.10811e-21)
(0.637892 0.0169925 5.65895e-23)
(0.670689 0.0721676 -2.1565e-22)
(0.670501 -0.0541086 -3.75205e-22)
(0.873714 0.0558953 7.36128e-21)
(0.60667 0.00309501 1.9238e-21)
(-0.0477386 -0.112188 6.2637e-21)
(0.625344 -0.0108559 -8.26157e-22)
(-0.140864 -0.00635509 2.57762e-20)
(-0.0299422 0.0848063 3.25102e-22)
(0.468568 -0.0377166 6.98177e-21)
(0.577238 -0.00999658 3.03914e-22)
(0.566907 -0.00975474 -1.72521e-22)
(0.594698 -0.0084888 1.92242e-21)
(-0.0412812 0.113103 -5.65791e-21)
(0.566943 -0.00793076 -8.35439e-23)
(0.569609 -0.00231839 -4.76324e-23)
(0.614383 -0.0459842 2.5132e-23)
(0.705084 -0.0125936 -5.73628e-23)
(0.606743 -0.00269214 2.7108e-22)
(0.676805 0.00152741 -2.16262e-23)
(0.609012 0.00968416 -2.2391e-22)
(0.695837 0.022919 -3.31779e-21)
(0.683241 0.00618305 2.1461e-23)
(-0.0315721 -0.0307678 -1.48797e-21)
(0.713258 -0.0556512 -4.45453e-22)
(-0.0233274 0.00965777 1.21749e-21)
(-0.055263 -0.108847 2.74187e-21)
(-0.0487612 -0.0442042 5.50201e-22)
(0.198063 -0.0306837 -2.93166e-21)
(-0.0218183 -0.0405585 -2.75741e-21)
(0.61198 0.00749416 -8.02008e-23)
(-0.0327737 0.0941541 5.91689e-21)
(0.68128 0.0128936 6.65677e-23)
(0.241461 0.0793726 1.72618e-20)
(-0.0893585 -0.036521 1.49949e-20)
(0.725092 0.0991837 -2.19638e-20)
(0.037305 0.036344 -1.26684e-20)
(-0.0337994 0.096371 2.11501e-21)
(0.614859 0.0107792 6.96834e-23)
(0.742881 0.044906 3.99333e-23)
(-0.0300794 -0.0884385 2.72161e-21)
(0.650841 0.0185304 -7.13354e-22)
(0.690328 0.00319442 -1.23227e-22)
(0.912277 0.0406809 7.63761e-21)
(0.683628 -0.0661338 -5.19715e-22)
(0.703726 0.0242554 1.11589e-21)
(0.686475 -0.013338 -4.27661e-23)
(-0.0536242 0.0836919 2.24029e-22)
(0.186299 -0.00925554 1.29966e-20)
(0.69893 -0.0250716 9.02122e-24)
(0.779542 0.0396697 8.61206e-21)
(0.666821 0.0201641 1.32202e-21)
(0.665639 0.0412255 -4.66514e-23)
(0.564486 -0.00694146 -2.10717e-23)
(0.572315 -0.00212965 -3.2351e-22)
(-0.116425 -0.0221313 3.07699e-21)
(0.655599 0.0196318 -2.51801e-22)
(0.882885 0.0692864 -2.00262e-21)
(0.696063 -0.0523698 -2.67827e-20)
(0.34929 0.0920658 -3.32966e-21)
(-0.0802708 -0.0515836 -6.42065e-22)
(0.278494 0.00953295 -5.55336e-21)
(0.567381 -0.0118458 -3.55781e-22)
(0.616645 0.0660033 9.94681e-21)
(-0.0174952 -0.0133322 1.28637e-20)
(0.647995 0.0189794 -2.23857e-22)
(0.682597 0.0186699 3.29692e-22)
(-0.0466212 -0.0812722 -9.88919e-21)
(0.74901 0.0259092 5.20605e-23)
(-0.0422705 -0.0989909 9.1239e-21)
(0.589321 -0.00108157 -4.67008e-22)
(-0.0870889 -0.0251038 2.24442e-21)
(-0.0515086 -0.0911029 -2.80849e-20)
(0.640574 -0.00368669 -8.32849e-23)
(0.709761 -0.0592492 -4.60286e-23)
(0.661269 0.0206642 -5.74187e-23)
(0.0267589 0.0400193 -4.94842e-21)
(0.644965 -0.0068635 -2.26837e-22)
(0.911696 0.0380174 2.63585e-21)
(0.43296 -0.102492 7.48224e-21)
(-0.065171 -0.0809302 -1.23588e-20)
(-0.0478869 -0.0848007 -2.37014e-20)
(-0.0884309 -0.0433695 4.23982e-21)
(0.595452 0.00620197 4.36655e-22)
(0.675549 0.0210073 -1.75108e-22)
(0.955278 0.0323857 -1.18996e-21)
(0.620994 0.00957292 1.33458e-22)
(0.491796 -0.0378508 9.53908e-22)
(0.567876 -0.00611445 -1.51169e-22)
(0.392897 0.0237196 1.11707e-20)
(0.717943 -0.0768374 -5.75012e-22)
(0.599696 -0.00843991 -8.14843e-22)
(0.821311 -0.0845117 -1.51492e-21)
(0.673147 0.0171278 1.12386e-21)
(0.782024 0.0667768 -2.12787e-21)
(-0.047768 -0.114515 4.59837e-21)
(-0.00913304 0.0757214 -1.33683e-20)
(0.569187 -0.0037903 -2.71353e-22)
(-0.0383688 -0.0929395 -1.52362e-21)
(0.722634 0.0192349 -6.97762e-23)
(0.0467583 0.0326471 2.93346e-20)
(0.901252 0.0370903 -2.55756e-21)
(0.677644 -0.0457184 -3.06781e-22)
(-0.0368369 0.09374 1.77414e-21)
(-0.0562569 -0.103678 -1.03278e-20)
(0.162432 0.00680647 8.21638e-22)
(-0.020462 -0.042839 9.14326e-21)
(0.168428 0.0085242 1.36401e-20)
(0.466557 0.0755688 1.73687e-22)
(0.352793 -0.0509176 2.87043e-23)
(0.595216 0.00943705 -6.76627e-24)
(0.641616 -0.0123462 -2.29479e-22)
(0.569144 -0.108197 2.24579e-21)
(-0.0607996 0.0845488 2.66717e-20)
(0.563648 -0.00853854 4.39517e-23)
(0.94259 -0.0408203 6.01076e-23)
(0.572453 -0.00123881 2.36645e-23)
(-0.0512007 -0.119206 -1.25238e-20)
(0.604168 -0.00168548 -1.121e-22)
(0.571858 -0.0184846 2.60473e-23)
(0.598036 0.00973971 1.95311e-22)
(0.70803 -0.0364018 3.51225e-22)
(0.615864 0.0085539 -1.69537e-22)
(0.796822 -0.0792025 -2.1805e-22)
(0.421419 0.0326118 3.00273e-20)
(0.0266537 0.0609525 -1.10285e-20)
(0.695774 0.0258179 -2.11168e-22)
(0.471857 0.0292559 -1.16669e-20)
(0.695958 -0.009948 5.34768e-23)
(0.481917 -0.0785607 1.06225e-20)
(0.65004 0.00504863 1.85437e-22)
(0.369247 -0.0229728 -4.1129e-21)
(0.635441 0.0371183 6.79252e-22)
(0.277709 -0.0901793 -2.53856e-21)
(0.577795 -0.00326294 -1.26143e-21)
(0.201504 0.00149633 8.7539e-22)
(-0.0504093 -0.105401 2.9687e-21)
(0.725074 0.0264686 -2.01455e-22)
(0.682264 -0.0450537 -1.28986e-21)
(-0.0822553 0.0116844 -8.20301e-22)
(0.643836 0.0181401 -1.52653e-22)
(0.705372 -0.000178948 -1.28556e-23)
(0.660929 0.0267652 -2.66045e-22)
(0.583552 0.00609565 2.31429e-23)
(-0.0424427 0.0992178 -4.47673e-21)
(0.608442 0.00261734 1.10904e-21)
(0.595867 -0.000646399 2.05122e-22)
(0.580103 -0.0374592 -1.35969e-23)
(-0.107267 0.0167136 4.30509e-21)
(0.643719 0.0169202 -1.13141e-21)
(0.00847907 0.0361901 -6.20377e-21)
(0.644562 -0.0484061 -1.16169e-21)
(-0.105874 -0.00225031 -3.59503e-21)
(0.758823 0.0324429 -1.07937e-22)
(0.605481 0.0473376 -3.57874e-22)
(0.673856 0.0220203 -1.53709e-22)
(0.57547 -0.00322491 3.95367e-22)
(0.0534812 -0.0487804 4.28364e-21)
(0.00159398 -0.0305134 4.87918e-22)
(0.750825 0.0424956 7.66247e-21)
(0.482161 -0.0307476 5.47403e-22)
(0.720567 -0.0476064 -2.12612e-22)
(0.701734 0.0122723 -1.60152e-23)
(0.626704 0.0104754 1.10026e-23)
(-0.0721246 -0.0585557 2.2282e-21)
(-0.0489751 0.108636 1.51494e-21)
(0.614806 -0.00254546 -8.95322e-23)
(-0.0389323 0.0914711 2.45299e-20)
(0.612901 0.0120428 -1.28168e-22)
(0.605218 -0.0420174 1.53582e-22)
(0.593016 -0.0333042 2.86572e-22)
(0.737479 0.0339974 2.39988e-22)
(0.624584 0.0136552 -1.94322e-22)
(-0.0599171 -0.0840819 -2.10912e-21)
(-0.0492424 0.0982033 1.59589e-21)
(-0.0729071 -0.0649922 -7.76332e-21)
(0.535942 -0.0439298 1.74797e-22)
(0.618619 0.026609 2.20536e-22)
(0.628548 0.0109625 9.56906e-22)
(0.0193513 0.0635674 -5.8537e-21)
(0.369224 0.0596967 1.69928e-22)
(-0.07552 0.0556783 9.53136e-21)
(-0.0826305 0.0250619 5.84007e-22)
(0.25142 0.0136291 -2.78817e-20)
(0.579546 0.00282805 -2.30237e-24)
(0.710911 -0.0976649 -7.2292e-21)
(0.571556 0.014612 -3.65797e-22)
(0.626178 0.0191399 1.19482e-22)
(-0.0449914 0.111248 8.4933e-21)
(0.738473 -0.0413488 -2.7032e-23)
(0.618563 0.00323021 -2.76251e-22)
(-0.034043 -0.0361759 1.92362e-21)
(-0.0383585 -0.10538 -4.61734e-21)
(0.283143 0.0415842 -4.94679e-22)
(0.617197 0.0114302 -1.33117e-23)
(-0.0473533 0.109585 1.2652e-20)
(0.189583 0.00936764 -1.276e-22)
(0.690047 0.00584304 -8.26745e-23)
(0.726548 0.0410995 -4.5152e-21)
(-0.0606895 0.0799573 -1.68388e-20)
(0.679493 0.0366756 5.48946e-22)
(0.60376 0.00820466 -6.04314e-23)
(0.504377 -0.0376147 1.49759e-20)
(-0.0554842 -0.105416 -5.93934e-21)
(0.61383 0.0116074 6.66015e-22)
(0.585485 -0.0263886 1.75402e-22)
(0.743508 0.0182223 -3.24933e-22)
(0.584158 0.000134306 -1.87062e-22)
(-0.0280747 -0.00642516 -7.25394e-21)
(0.569645 -0.00560168 1.49152e-22)
(0.688384 -0.061202 -2.21859e-22)
(0.152971 0.0653272 4.73629e-21)
(-0.0443156 -0.108839 -8.58821e-21)
(0.657775 0.0182782 -6.20488e-22)
(-0.147119 0.00577883 7.12304e-21)
(0.664508 -0.0364531 1.8476e-22)
(-0.0674053 -0.0210775 1.79756e-20)
(-0.0219193 0.0248254 6.65214e-21)
(0.77642 -0.0759171 2.81613e-21)
(-0.0935182 -0.0419427 -1.03862e-20)
(0.159833 0.0662566 -6.90932e-21)
(-0.0405463 0.0906664 2.4769e-21)
(0.741294 0.0475794 -3.78756e-23)
(0.595797 0.00723629 -7.87738e-22)
(0.706126 0.0247712 1.62803e-21)
(-0.095278 0.010452 1.69651e-21)
(0.639106 -0.0449097 3.69767e-21)
(0.638879 1.02672e-05 -4.25374e-23)
(0.5759 -0.0123429 -1.22496e-22)
(-0.0499317 0.053133 -3.45543e-21)
(0.719266 0.00551855 4.32678e-25)
(0.783902 -0.0438235 -5.60914e-21)
(-0.0483063 0.0856885 1.72527e-21)
(0.0115875 0.0636159 3.58433e-20)
(-0.0594809 0.0602043 5.98531e-22)
(0.593912 -0.00051032 8.85053e-22)
(0.63745 0.0153316 1.11111e-21)
(-0.0133054 0.000666596 -1.58561e-20)
(0.579553 -0.00400656 -6.06148e-22)
(-0.041437 0.0901805 -2.86691e-21)
(0.52306 -0.0379429 -1.20696e-21)
(0.583692 0.034644 -2.71034e-24)
(0.625301 -0.0504277 -2.14004e-22)
(-0.114843 -0.00503843 -2.49694e-21)
(0.0831409 0.0317736 -1.15268e-21)
(-0.123359 -0.00731937 4.38775e-21)
(-0.142275 0.00757305 -1.26101e-20)
(0.572425 -0.0029041 -3.70373e-22)
(-0.105049 0.0228112 -2.56451e-21)
(-0.043625 -0.0147111 -3.98199e-22)
(0.60567 -0.0380732 -3.80574e-22)
(0.450275 -0.0287229 4.83356e-22)
(0.611122 -0.0417721 5.01615e-23)
(-0.0575678 -0.0688259 5.45754e-21)
(0.61215 0.0107341 -3.58732e-22)
(-0.0552929 -0.0628462 2.82276e-21)
(0.936702 0.052307 1.20826e-20)
(-0.0765939 -0.0445695 1.53761e-20)
(0.590012 -0.0259605 -2.57424e-22)
(-0.0600292 -0.0342509 7.93492e-21)
(0.681586 -0.0315865 -2.81281e-23)
(0.570589 -0.00894585 -1.51682e-22)
(-0.0104732 -0.0808579 -1.05317e-20)
(-0.00596645 0.0266245 -3.39646e-21)
(0.638677 0.011242 -9.77654e-22)
(-0.0830314 0.0367472 -3.13107e-22)
(0.473523 -0.0362315 7.02624e-21)
(-0.107132 0.00910724 2.06641e-21)
(-0.0359406 0.029346 -8.14526e-21)
(-0.0274174 -0.0908424 2.11289e-20)
(-0.0577788 0.0710069 -4.16867e-21)
(-0.0947123 0.0222974 2.71187e-22)
(0.56859 -0.00753819 -4.73274e-23)
(0.00249846 0.0706836 1.41462e-20)
(0.603859 0.00841758 4.13417e-23)
(0.569572 -0.0113739 -1.45687e-23)
(-0.0488037 -0.114774 -5.52741e-21)
(0.19219 -0.00235744 2.20621e-20)
(0.503158 -0.034976 1.03538e-20)
(-0.0416197 -0.106755 1.53863e-20)
(-0.151429 -0.00153933 6.5117e-20)
(0.601088 -0.0343233 -2.56592e-22)
(-0.154986 0.000869198 -3.79075e-20)
(-0.0316561 -0.0835329 -1.05639e-20)
(-0.045816 -0.0291785 -2.45313e-21)
(0.647462 -0.00612301 1.1621e-25)
(-0.0589687 0.0870924 3.64186e-21)
(-0.0413107 -4.03809e-06 -9.91162e-21)
(0.37067 -0.0755874 2.1783e-20)
(0.668182 -0.00424392 -2.31569e-23)
(0.581201 -0.0357522 1.56969e-22)
(0.0794831 0.0122462 2.35644e-20)
(-0.0522451 -0.116683 1.15969e-20)
(-0.00648989 -0.077188 1.45644e-21)
(0.347664 0.0431982 -9.17266e-22)
(-0.0483951 0.0936866 4.48356e-21)
(0.689411 0.00400367 -6.25489e-24)
(-0.0471876 0.0754547 7.22224e-21)
(-0.0438892 0.106034 -6.4396e-21)
(0.0435677 0.0484373 -1.8949e-20)
(0.615966 0.00283395 -5.34468e-22)
(0.571553 -0.043572 -8.77401e-21)
(0.574744 -0.0273419 -1.56246e-22)
(-0.133901 -0.00775368 -1.56561e-20)
(-0.0437017 -0.0348718 8.4896e-21)
(0.011773 -0.0635381 -5.15441e-22)
(0.548188 0.0121072 1.64423e-21)
(0.387723 -0.0458864 3.70004e-20)
(0.654631 -0.0287916 -5.07141e-22)
(-0.0489424 -0.066925 7.51675e-21)
(0.579277 -0.00598049 5.44628e-22)
(0.0131252 -0.0675082 -3.84281e-21)
(-0.130841 0.00945784 -1.85233e-21)
(-0.0560668 -0.00816424 -9.7807e-21)
(0.559593 0.0107546 -5.35187e-22)
(0.62527 0.0076071 8.11423e-23)
(-0.121388 -0.00984115 8.66598e-21)
(-0.0745633 0.0167984 -1.09749e-21)
(0.0343815 0.0558629 -1.11994e-20)
(0.45878 -0.0363098 -2.53177e-21)
(0.697155 -0.0514519 -5.39889e-23)
(0.705944 0.0208064 -8.55834e-22)
(-0.0578323 0.0572138 -3.9113e-21)
(0.577996 -0.00908311 -6.33842e-22)
(-0.0539257 -0.0807311 4.79431e-21)
(-0.125723 -0.0145927 7.40303e-21)
(0.417274 -0.0335544 -2.84924e-21)
(-0.0824783 -0.00536553 1.32355e-20)
(0.154 -0.0156965 -5.00662e-21)
(-0.0561473 0.0994704 1.67667e-20)
(-0.0554486 -0.0534826 -8.46136e-21)
(-0.0206239 0.0417371 1.64076e-20)
(0.601235 -0.0429677 2.18785e-22)
(0.593533 0.000250327 -2.31881e-23)
(0.679785 -0.0327284 3.63304e-23)
(0.504686 0.0366194 -5.19506e-21)
(-0.0944073 -0.038727 2.89675e-21)
(0.0964326 0.0221787 -9.91477e-21)
(0.634199 -0.0557817 -1.57151e-22)
(0.786429 -0.078353 -3.20056e-21)
(0.67812 -0.0251847 4.63073e-22)
(-0.0474791 0.111115 8.75027e-21)
(0.589247 0.00726389 1.01344e-23)
(0.0434256 -0.0482962 -2.53036e-21)
(0.593689 0.000106565 -1.43832e-22)
(-0.0482415 -0.1156 5.39565e-21)
(0.664785 -0.0561282 3.57621e-22)
(0.597036 -0.00155556 -4.66078e-23)
(-0.0455138 -0.0925973 1.49926e-20)
(-0.0132222 0.0519176 -1.13529e-20)
(0.563895 -0.0138333 5.48637e-23)
(0.58153 -0.00178798 1.87681e-21)
(-0.049687 0.0761091 -2.75023e-21)
(0.0753877 0.00236899 -1.68643e-20)
(-0.105066 0.010797 -3.01327e-21)
(0.602026 -0.000909334 -9.02448e-23)
(-0.0735306 0.0307303 5.75174e-21)
(0.674124 -0.0504033 -8.59987e-21)
(0.581935 -0.00334909 8.2566e-23)
(0.896326 -0.0658273 9.84178e-21)
(0.70684 0.0226991 3.4057e-22)
(0.693218 -0.0563827 7.69835e-23)
(0.569051 -0.0045975 -2.75836e-23)
(0.586292 0.00173002 -2.2773e-21)
(-0.114636 -0.0173589 -5.12722e-21)
(0.572171 0.0222603 4.57341e-22)
(-0.0968287 -0.0255691 -1.07842e-20)
(0.887312 -0.0503546 -1.91481e-21)
(0.611503 0.0078898 4.28141e-23)
(-0.0263171 -0.073566 2.47964e-20)
(-0.045121 -0.075157 6.0683e-21)
(-0.0383464 0.0147337 7.34773e-21)
(-0.0484328 0.109431 5.39377e-21)
(0.530569 0.029898 1.00333e-21)
(0.684061 0.0213949 5.58891e-22)
(0.686172 -0.01495 1.29496e-22)
(0.581676 -0.00538924 4.1126e-22)
(-0.00469645 -0.000508499 -1.46512e-20)
(-0.148141 0.00285283 3.77277e-20)
(-0.072606 0.0434557 2.11395e-22)
(-0.0331642 0.012917 -6.56032e-21)
(0.154959 0.0592142 1.3515e-20)
(0.694197 0.0445322 8.09096e-21)
(0.575583 0.00187534 8.27326e-23)
(-0.0217428 0.0628592 1.63079e-20)
(-0.0483577 -0.0930875 7.86861e-22)
(-0.0168026 0.0737892 -1.35832e-20)
(0.588188 -0.0393962 -7.3377e-21)
(0.684504 -0.0648836 -5.94908e-22)
(0.82213 0.0392591 6.76082e-21)
(0.0458977 -0.0548928 9.12747e-21)
(0.352116 0.0938674 -7.12299e-21)
(0.116547 -0.0174725 -1.24704e-20)
(-0.116363 -0.011168 1.36371e-20)
(0.451752 -0.0234601 4.38564e-22)
(0.57369 -0.0235015 3.65817e-22)
(0.828272 0.0797386 5.44308e-22)
(0.183912 0.00666483 4.84804e-21)
(0.627141 0.00188755 1.53718e-23)
(0.624584 0.0154801 -3.22371e-22)
(-0.128124 -0.00252689 5.01206e-21)
(-0.0360185 0.0813907 5.44612e-21)
(0.628697 0.100909 3.57136e-20)
(0.15789 -0.00628204 -4.46774e-21)
(-0.127628 -0.00331771 1.15993e-20)
(0.0356359 0.0220873 9.61249e-21)
(0.0820014 0.0183843 -2.08106e-20)
(0.621492 0.012728 -2.06299e-22)
(0.587653 0.0136348 6.72561e-23)
(0.0288181 -0.0593394 -2.03862e-20)
(0.542187 0.00676301 1.12728e-21)
(0.664361 -0.000346239 -1.381e-22)
(0.687057 0.0140154 -4.18182e-22)
(0.564224 -0.0119383 8.88656e-23)
(0.701628 0.0116896 1.22573e-22)
(-0.0403031 -0.104593 3.46565e-21)
(0.000523178 0.0169847 3.56995e-21)
(0.592433 0.0399502 -3.35501e-22)
(0.085905 -0.00775476 -1.10451e-20)
(-0.0492568 0.0852334 -1.75142e-20)
(0.150236 0.014243 -3.89028e-21)
(-0.138692 0.000432027 -6.53718e-21)
(-0.00616754 -0.074566 -5.462e-21)
(0.61045 0.00184924 1.04951e-21)
(-0.145407 0.00412841 -1.76665e-20)
(0.575749 -0.0212098 -2.8497e-22)
(-0.078751 0.0249409 -5.05501e-21)
(-0.120348 0.00162425 2.4492e-21)
(0.667367 0.0063412 4.40295e-23)
(0.0575726 0.0179709 -1.18827e-20)
(0.580453 -0.010329 -1.36152e-21)
(0.674318 -0.0643058 1.59321e-21)
(0.0292119 -0.0591518 -1.32649e-21)
(0.0318165 0.0401866 3.55605e-21)
(0.363381 0.0617613 5.4275e-22)
(-0.065482 0.0619403 1.038e-20)
(0.619927 0.008356 -6.98386e-22)
(0.744966 -0.0955342 -4.4099e-21)
(-0.144362 0.00316663 -4.23758e-20)
(-0.0587033 -0.0948535 1.78483e-20)
(-0.00241278 -0.0399877 -5.43939e-21)
(0.586921 -0.0185492 3.88322e-22)
(0.576892 0.000164168 -2.66601e-22)
(0.594969 -0.02981 3.15669e-22)
(-0.0312247 -0.0212562 2.67559e-21)
(0.70097 -0.0468963 -5.73608e-23)
(0.391643 -0.0290596 -2.81062e-21)
(0.623558 -0.0134982 -2.43223e-22)
(0.583844 0.00487762 1.3775e-22)
(-0.159074 -0.000213198 -3.03944e-21)
(-0.0286226 0.0843167 6.55413e-21)
(-0.0213863 0.0787878 -1.86955e-20)
(0.152203 -0.0687552 3.86352e-21)
(0.671933 0.00882081 -1.18766e-22)
(-0.0396416 0.0799807 -4.82459e-21)
(0.616633 0.00519104 -1.28006e-21)
(0.699236 0.0206821 -1.30187e-22)
(-0.108868 0.010778 2.35372e-21)
(-0.144438 -0.00286435 -1.61657e-20)
(-0.155653 0.00124814 -6.69029e-21)
(0.405173 0.0235239 1.21258e-21)
(0.540445 0.0201372 4.05037e-22)
(0.55286 0.0432729 -7.51142e-21)
(0.57239 -0.0035483 7.81203e-22)
(0.567328 -0.0154089 -1.71792e-22)
(0.311318 0.0361111 -2.67033e-21)
(0.0429581 0.0497955 -8.05195e-21)
(0.65757 -0.0576015 -1.65923e-22)
(0.201492 0.00142627 1.57963e-20)
(-0.0525353 0.0858912 5.54256e-21)
(-0.134969 0.0034487 -1.22827e-20)
(-0.0639566 0.061641 -6.17372e-21)
(-0.0755475 0.0174885 4.687e-20)
(0.686288 0.0121149 9.09753e-22)
(0.106629 -0.00704963 -5.75699e-21)
(0.658863 0.0197772 1.99211e-22)
(0.580445 -0.0122381 1.12903e-21)
(0.50064 -0.0693731 1.29378e-20)
(-0.047635 0.119074 -1.11105e-20)
(0.0650761 0.0452892 1.68083e-21)
(-0.0998544 0.00134646 -1.06256e-20)
(-0.088339 0.0428918 9.85019e-21)
(-0.104594 -0.033017 1.05726e-20)
(0.507363 -0.0314434 -1.21245e-21)
(0.720683 0.00994281 -3.74642e-23)
(0.598669 0.00121649 -2.32371e-23)
(0.0529311 0.0491951 -1.93773e-20)
(-0.15735 -0.00223896 8.92552e-21)
(0.0786364 -0.0408259 -1.37113e-20)
(-0.0432752 -0.115142 2.40927e-20)
(-0.160121 -0.000247545 8.29972e-21)
(0.59853 -0.0377206 -3.29738e-22)
(0.704166 -0.0417962 -3.9398e-24)
(-0.151172 -0.00322113 3.62798e-21)
(0.371564 -0.0258474 -6.77689e-21)
(0.335083 -0.0199258 3.73179e-21)
(0.633797 0.00706985 5.0955e-23)
(-0.0323009 -0.099268 1.97175e-20)
(0.627609 0.00770148 7.64149e-22)
(0.566082 0.013132 -4.04694e-22)
(-0.00543067 -0.0696424 9.41229e-21)
(0.707352 -0.0375327 -6.49716e-23)
(0.826828 -0.0499767 3.995e-21)
(0.75022 -0.0469337 -4.19167e-21)
(-0.0198701 0.0840538 -2.07604e-20)
(0.867452 -0.0756853 8.79033e-23)
(-0.0474132 0.112543 -2.89907e-21)
(-0.0463954 -0.108281 8.19823e-22)
(0.267435 -0.0247484 -3.69969e-21)
(0.166233 -0.0538179 1.03894e-20)
(0.955797 0.0418468 -9.93714e-21)
(0.697862 0.0152262 -6.6942e-23)
(0.720861 0.0106368 2.04822e-24)
(0.614186 0.00625254 -9.6319e-22)
(0.0167081 -0.0670883 1.48303e-20)
(-0.0359026 -0.000121279 -5.58013e-20)
(-0.115935 -0.0254592 -1.28051e-20)
(0.285563 0.0151878 4.63307e-21)
(0.625391 0.00871964 -3.42562e-22)
(0.926036 0.056389 1.00727e-20)
(0.913591 -0.0586676 -1.60761e-21)
(0.70128 -0.0276702 -2.22417e-23)
(0.898264 -0.0652718 -4.42585e-21)
(0.381342 0.021408 -3.11121e-22)
(0.670031 0.00113101 3.65541e-22)
(0.614287 0.00380473 -2.09687e-21)
(0.688798 -0.0048789 1.68205e-22)
(0.650238 0.00551011 -1.61325e-22)
(0.568694 -0.00939348 3.84857e-22)
(0.0390525 -0.036991 -2.26961e-21)
(0.651589 0.00272805 1.35794e-22)
(-0.0821154 0.0497137 -3.44997e-21)
(0.520007 0.0860271 -1.06044e-20)
(0.600856 -5.01484e-05 -1.95077e-22)
(0.079512 0.0389226 -9.6861e-21)
(0.579937 -0.00815484 -1.57338e-23)
(0.602108 -0.0156084 -1.15531e-21)
(-0.094062 -0.00179216 1.4304e-21)
(-0.132054 0.0044557 -1.77168e-21)
(0.0811347 -0.0523043 -6.73396e-21)
(0.607633 0.00149494 -6.00232e-23)
(0.618917 0.00805207 -5.41477e-24)
(-0.0416305 -0.0662507 -2.47426e-24)
(-0.0402662 0.0851325 4.41658e-22)
(0.68092 -0.0418587 1.72403e-22)
(-0.0413427 0.105087 -1.83426e-20)
(0.71937 0.00672465 -9.24922e-25)
(0.709541 0.0139127 9.5168e-24)
(0.798705 -0.0538618 1.78274e-21)
(0.701883 0.0128797 -8.16564e-24)
(0.588845 -0.0297454 1.01893e-21)
(0.741418 -0.0644543 1.66093e-21)
(0.0635774 -0.0444718 -7.44521e-22)
(0.0219049 -0.050496 -3.74566e-20)
(0.248475 0.000810909 5.93369e-21)
(-0.0639661 -0.0569282 6.63843e-21)
(-0.0160635 0.019175 9.10594e-21)
(0.710482 0.00984848 -2.68211e-23)
(0.565975 -0.0067021 1.63863e-23)
(0.70257 -0.0302702 -2.10222e-22)
(0.363007 0.0319843 6.11838e-21)
(0.00582038 0.063896 9.30946e-21)
(0.590415 0.00148726 1.33788e-22)
(0.706054 -0.0201251 -2.32742e-23)
(0.687922 0.00824153 2.92162e-23)
(-0.0649842 -0.0423819 -9.2154e-21)
(0.682473 0.0108203 -5.77683e-22)
(0.955939 -0.0405867 -4.57907e-21)
(0.459615 0.033335 8.32066e-22)
(0.640922 -0.105355 -2.5719e-21)
(0.473399 -0.0246864 8.85511e-22)
(-0.0559098 -0.0887528 -3.16663e-21)
(0.589314 0.000883389 -7.9719e-23)
(0.705723 0.0191541 1.01328e-21)
(0.623736 0.00818905 6.23533e-22)
(0.558502 -0.00640905 1.98711e-22)
(0.562911 -0.0181537 3.79319e-23)
(0.186758 -0.0256369 6.43252e-21)
(0.623775 0.00410818 7.40181e-22)
(0.0203536 0.00409125 -1.95886e-21)
(0.614632 0.0440601 -6.4531e-21)
(-0.0422596 0.0223121 -9.16477e-22)
(0.587433 0.0729746 -2.376e-23)
(-0.0612181 0.0484477 -8.61245e-22)
(-0.000407076 0.0142422 -1.34416e-20)
(0.827068 -0.0454687 -1.34591e-21)
(0.642696 0.0356366 -1.04018e-21)
(-0.103711 -0.00912598 5.45362e-20)
(0.396123 0.0890858 -5.32272e-21)
(0.255891 -0.0816189 -1.19061e-20)
(0.066894 0.0362408 -2.73628e-21)
(0.0135615 0.0559326 2.54133e-20)
(0.576612 0.100283 1.33591e-20)
(0.164041 0.018392 -7.08232e-21)
(0.286376 0.077993 9.76547e-21)
(0.632172 -0.0094764 -1.0073e-21)
(0.625422 0.00563559 2.38354e-22)
(0.0248224 -0.0212825 1.23744e-20)
(-0.0505196 -0.0996888 -2.3549e-21)
(-0.0440266 -0.0182174 2.68776e-20)
(0.625973 0.0306563 1.97618e-22)
(0.24174 0.0824066 -1.78905e-20)
(0.486605 0.00890242 -8.81096e-22)
(0.703745 -0.00936006 5.70261e-23)
(0.573426 0.00704471 1.41883e-21)
(0.703614 -0.00233741 -1.76002e-24)
(0.76173 -0.0559575 6.75797e-22)
(0.700639 0.00447444 9.57527e-24)
(0.654413 0.00164996 -5.66463e-23)
(-0.118748 0.0164798 1.8673e-20)
(0.60329 0.00342322 3.40178e-22)
(0.565752 -0.0129258 5.55178e-22)
(0.450472 -0.0320768 2.15898e-20)
(0.485101 0.10097 3.50534e-21)
(0.752233 -0.0673269 7.54891e-22)
(0.711336 0.00855605 -7.75622e-23)
(0.488684 0.0213154 6.80469e-22)
(0.0800622 -0.0625682 -3.74072e-21)
(0.566392 0.0196922 5.36976e-22)
(0.599722 0.00131989 -7.14964e-22)
(0.720133 0.00849474 1.36797e-24)
(0.687448 -0.104398 -7.46127e-21)
(0.502189 0.0617328 1.11621e-22)
(0.764995 -0.0985431 -2.61004e-21)
(0.719025 0.00425895 1.49876e-26)
(0.591936 0.0694247 8.14266e-23)
(0.219847 -0.00201099 -1.36211e-21)
(0.59585 -0.00593947 4.50759e-22)
(0.573489 -0.0100486 -4.29373e-22)
(0.128984 0.00232929 -2.97225e-21)
(-0.0987602 -0.0350717 7.45124e-21)
(-0.0287136 -0.0941868 -2.64933e-20)
(0.380517 -0.0377051 6.63073e-21)
(0.0692969 -0.0419239 -7.28284e-23)
(0.670958 0.0686159 2.17758e-22)
(0.00183479 0.0619345 1.75609e-20)
(0.477419 0.0356622 1.08916e-22)
(0.605369 0.0227194 6.0128e-23)
(0.701859 0.0171056 -3.57078e-22)
(0.621924 0.0180058 2.5428e-22)
(0.292762 0.0927795 7.54744e-21)
(0.624025 -0.0109642 7.14497e-23)
(0.707394 0.0109348 2.51077e-22)
(0.703983 -0.00161375 3.20607e-23)
(0.154455 0.0606486 8.82597e-21)
(-0.160589 -0.000132523 2.42787e-20)
(0.528292 -0.0650612 -1.22147e-23)
(0.756496 -0.0531795 -1.34442e-22)
(0.464052 0.00962255 1.24806e-21)
(0.572155 -0.0429327 3.21741e-23)
(0.433656 0.00680738 -1.39385e-22)
(0.46823 0.00600342 -1.30824e-21)
(0.233803 0.00852794 2.00579e-21)
(0.489166 0.00578451 3.9119e-22)
(0.172698 0.00957285 4.50742e-21)
(0.595599 -0.0410195 -5.9078e-22)
(0.648518 0.0180585 6.1889e-22)
(0.546244 -0.0492844 1.04055e-21)
(0.514301 0.00372911 -1.02951e-21)
(0.643432 0.00781437 1.2915e-22)
(0.530931 0.00548248 1.4325e-21)
(0.647924 0.0174078 -1.82319e-22)
(0.49068 0.0685906 -7.98706e-22)
(0.681399 0.0116635 7.25593e-23)
(0.545706 0.00386847 -2.04025e-21)
(0.402493 0.0480864 3.86836e-23)
(0.594622 0.0663799 2.75841e-22)
(0.563299 0.00619467 -9.00484e-22)
(0.622484 -0.00229035 5.89298e-23)
(0.442063 0.0024639 -9.83587e-22)
(0.405378 -0.00224141 -2.4779e-22)
(0.368036 -0.00526765 -3.11901e-22)
(0.310897 0.0017799 1.35739e-21)
(0.258069 0.00502593 -7.01357e-22)
(0.47423 0.00156154 1.57889e-21)
(0.191723 -0.00273758 -3.32896e-21)
(0.494023 0.00199191 9.78768e-22)
(0.580981 -0.0477487 -4.45955e-22)
(0.520497 0.00175199 7.61282e-23)
(0.610503 -0.038887 3.1409e-23)
(0.53331 0.003521 6.56243e-22)
(0.581422 -0.00823147 -1.2876e-22)
(0.602435 -0.0102818 -4.70736e-22)
(0.551021 0.00345367 9.7951e-22)
(0.571671 0.0055028 -1.39051e-21)
(0.563629 0.00373263 6.76178e-22)
(0.684792 -0.00393519 1.08866e-22)
(0.661102 0.0113845 -2.09125e-23)
(-0.150063 -0.00316439 -2.12554e-20)
(0.65731 0.0142336 -3.72306e-22)
(0.63045 -0.00203783 -1.58644e-22)
(0.659659 0.012665 1.48705e-22)
(0.572098 0.00400523 1.06738e-21)
(0.594986 0.00499798 1.36972e-21)
(0.529568 -0.0315195 -2.1979e-21)
(0.578485 0.00470984 7.6005e-23)
(0.414814 0.0102987 -1.23141e-21)
(0.373865 0.00884346 -1.78049e-22)
(0.507147 0.00913818 -2.20496e-21)
(0.581031 0.00323919 -1.97653e-22)
(0.659938 0.0107596 2.65546e-23)
(0.594203 -0.00069617 -8.12848e-22)
(0.687245 -0.0545018 -4.32643e-23)
(0.6803 -0.0378803 3.06541e-22)
(0.130972 -0.0247894 1.10018e-20)
(0.665826 0.00659115 -2.08135e-22)
(0.446555 -0.0162681 3.54134e-22)
(0.589154 0.00390781 -1.46753e-22)
(0.561192 -0.00554252 -2.33312e-22)
(0.598438 0.000588566 -6.8408e-22)
(0.660966 0.00914167 -1.33815e-23)
(0.306591 0.0257277 -4.91279e-23)
(0.595689 0.0140286 -8.5884e-22)
(0.0497869 0.000805152 -2.24515e-21)
(0.588933 0.00634388 9.7619e-23)
(0.634662 0.00983599 -2.9947e-22)
(0.651188 -0.00456382 1.04286e-22)
(0.683047 0.0228358 7.09167e-22)
(0.595041 0.00423124 -2.14825e-23)
(0.617097 0.0251146 -6.81213e-22)
(-0.0449045 0.0782697 -1.27565e-20)
(0.684335 0.00907922 4.29747e-22)
(0.596487 0.00613854 -1.39977e-24)
(0.15742 -0.00911312 2.56319e-21)
(0.594916 0.00404982 1.21308e-22)
(0.648463 -0.00160328 -2.72781e-23)
(0.626344 -0.0067324 1.81875e-22)
(0.435665 -0.0416416 -2.85433e-20)
(0.648758 0.00648213 3.55394e-23)
(0.704767 0.0241234 3.33454e-22)
(0.499683 0.0649317 3.86888e-22)
(0.660572 0.0118529 -3.78344e-23)
(0.0342566 0.0472595 4.06061e-21)
(0.593391 -0.0536938 1.57695e-22)
(0.611185 -0.0449812 1.0824e-21)
(0.286084 0.00591993 7.85891e-22)
(0.334178 -0.0003913 2.53401e-21)
(0.216312 -0.0215757 7.5122e-21)
(0.640005 0.00860679 -6.91633e-23)
(0.482775 -0.00125164 -3.14685e-21)
(0.490759 0.0198739 4.97681e-22)
(0.423512 0.0240881 -1.05826e-21)
(0.501835 0.000489703 -2.5361e-21)
(0.690521 0.0321033 3.04615e-22)
(0.539432 0.00272982 -1.07413e-22)
(0.367951 0.0937135 -2.10766e-20)
(0.556604 0.0056046 -7.82364e-22)
(0.598079 0.00301423 7.56293e-23)
(0.269117 -0.00603371 -3.51641e-22)
(0.320875 -0.0100332 -7.31686e-22)
(0.338563 0.0380701 -2.94851e-23)
(-0.0924624 -0.0111197 -1.3674e-20)
(0.622441 -0.0359783 -1.42206e-21)
(0.637577 -0.00614878 -3.38265e-23)
(0.255323 0.0766528 7.81838e-21)
(0.618933 0.0430844 2.82995e-22)
(0.623622 0.0161136 -8.03331e-22)
(0.566218 0.00243784 -4.10094e-23)
(0.535126 0.000462988 -2.78776e-22)
(-0.0442046 0.0451305 2.59865e-21)
(0.614533 -0.0403069 -8.17103e-23)
(0.586284 -0.0342919 1.18607e-21)
(0.600465 0.00447901 3.87149e-23)
(0.700368 0.00900891 1.02994e-23)
(0.594282 0.0089193 -4.51049e-22)
(0.604169 0.00549033 -9.7723e-23)
(0.598828 0.00364117 -2.48934e-22)
(0.573551 0.00239674 -1.06953e-21)
(0.634948 -0.00260368 3.06117e-24)
(0.603745 -0.0093106 3.49849e-22)
(0.610062 -0.00106053 7.04306e-23)
(0.592288 0.00435343 1.10061e-22)
(0.630951 -0.00130966 -5.39326e-23)
(0.0386994 0.0532339 1.1471e-20)
(0.531953 0.0127608 -1.65465e-22)
(0.619721 0.00191077 -5.39656e-22)
(0.576874 0.011169 1.19923e-22)
(0.587007 0.0090739 4.60736e-22)
(0.640596 -0.00142842 2.03587e-23)
(0.21771 -0.0318472 -4.03272e-21)
(0.606448 0.0323177 -4.26784e-24)
(0.551381 0.0416551 2.93956e-22)
(0.63837 0.0238208 2.06834e-22)
(0.639701 0.00932675 1.39903e-22)
(0.644501 -0.00521891 -1.32784e-22)
(0.6588 0.0102468 -3.65563e-24)
(0.616531 -0.000939996 -2.38232e-23)
(0.410476 -0.10063 -2.98748e-21)
(0.639679 -0.0553678 8.57909e-23)
(0.3217 -0.0247315 3.1632e-22)
(0.644193 -0.0165314 -8.24708e-22)
(0.602433 0.00327286 1.68934e-22)
(0.505041 -0.00812289 -5.51773e-22)
(-0.035372 0.0953533 7.2872e-21)
(0.590208 0.0333919 6.16994e-22)
(0.742754 0.0168645 1.78885e-22)
(0.75608 0.0302878 -8.66515e-23)
(0.736539 0.00231563 7.83664e-24)
(0.738885 0.00861826 2.07007e-23)
(0.735036 -0.0387846 3.45094e-24)
(0.703063 -0.002841 -7.35447e-23)
(0.739067 0.0112309 9.48019e-25)
(0.727128 -0.0140133 8.78683e-23)
(0.7038 -0.0082449 -7.78374e-23)
(0.732756 -0.00448844 -6.54489e-23)
(0.70491 0.000498978 3.06618e-23)
(0.734725 -0.000524029 2.41968e-23)
(0.728431 -0.00900694 2.29233e-22)
(0.723656 -0.0199977 9.59235e-25)
(0.738554 0.0118715 2.48303e-23)
(0.704669 -0.0109428 -6.93108e-23)
(0.705036 -0.00102061 4.46498e-23)
(0.739067 0.0100494 4.05798e-23)
(0.752248 -0.0496196 2.64306e-22)
(0.600606 0.00766491 1.27992e-22)
(0.574335 -0.000239043 -9.60684e-23)
(0.151138 -0.00800882 -1.96759e-20)
(0.233203 -0.017415 -1.89705e-21)
(0.707408 0.012223 -5.89888e-22)
(0.62378 -0.0534824 5.46524e-22)
(0.62617 0.00697367 -3.2727e-22)
(0.613178 -0.0622745 -6.98108e-23)
(0.38159 -0.00348882 -1.02059e-22)
(0.541027 0.0434467 1.12431e-22)
(0.417988 -0.00332488 3.98396e-22)
(0.618956 0.0171114 -3.05132e-22)
(0.740901 0.013834 7.37854e-23)
(0.741194 0.0158741 4.48193e-23)
(0.755806 0.0288818 4.01069e-22)