/*--------------------------------*- C++ -*----------------------------------*\
  =========                 |
  \\      /  F ield         | OpenFOAM: The Open Source CFD Toolbox
   \\    /   O peration     | Website:  https://openfoam.org
    \\  /    A nd           | Version:  10
     \\/     M anipulation  |
\*---------------------------------------------------------------------------*/
FoamFile
{
    format      ascii;
    class       volScalarField;
    location    "800";
    object      epsilon;
}
// * * * * * * * * * * * * * * * * * * * * * * * * * * * * * * * * * * * * * //

dimensions      [0 2 -3 0 0 0 0];

internalField   nonuniform List<scalar> 
23845
(
0.0423543
0.0596005
0.0576711
0.0139557
0.0412376
0.00241473
0.0763538
0.0108718
0.00175863
0.0257368
0.023931
0.00205648
0.00338058
0.00210387
0.121874
0.0122791
0.00638547
0.00878741
0.00442924
0.00313164
0.0336483
0.0210406
0.0277565
0.0017654
0.0260824
0.00120256
0.0517207
0.00285716
0.010485
0.00309219
0.0155298
0.0246799
0.135422
0.00934745
0.00207134
0.00256027
0.0208181
0.00208192
0.0021761
0.0019642
0.00404747
0.00609033
0.0028249
0.00592221
0.000859242
0.00405063
0.0284171
0.0141502
0.0228277
0.0109984
0.0145757
0.0469996
0.0278102
0.00251142
0.023943
0.00556547
0.0550434
0.0111943
0.0428141
0.0356746
0.0106241
0.0063431
0.0106336
0.0128038
0.00156076
0.0034578
0.0546873
0.000722894
0.000749187
0.00556913
0.0106139
0.0421894
0.00156972
0.105591
0.00132268
0.118094
0.00206129
0.00220592
0.0114442
0.00954582
0.039355
0.0961729
0.0599669
0.0112515
0.0648966
0.00208591
0.0806493
0.0291977
0.00152046
0.00792915
0.0142401
0.00527325
0.0111396
0.00257101
0.0115112
0.0125457
0.00563141
0.0159688
0.00129013
0.0326317
0.00662524
0.0593686
0.0508052
0.0137855
0.0130179
0.0116061
0.00242801
0.00114739
0.0469744
0.00577873
0.0213515
0.00211192
0.0897896
0.0213705
0.002679
0.0238466
0.00144103
0.0152021
0.0106284
0.0129777
0.00215344
0.0176617
0.00566507
0.0216573
0.0631446
0.00132749
0.0105581
0.010878
0.0403281
0.0312849
0.0569466
0.038683
0.0277467
0.00223775
0.00847115
0.0484766
0.0130149
0.0020359
0.045591
0.00221685
0.0119344
0.00570279
0.00220735
0.00638721
0.00884997
0.0054084
0.0187348
0.0859005
0.019128
0.00929384
0.127889
0.00232436
0.0695367
0.00275862
0.0831775
0.0167205
0.0471853
0.00227417
0.0767728
0.011487
0.00719191
0.118724
0.0118696
0.00162018
0.00211628
0.0119559
0.00227768
0.0161301
0.002995
0.00532927
0.00228169
0.0151297
0.00172426
0.0182055
0.0016382
0.011246
0.00608444
0.0221203
0.00110256
0.00224215
0.0327038
0.0287069
0.103181
0.0188518
0.0109177
0.00444767
0.00605701
0.0111451
0.0106053
0.00584818
0.0118904
0.00218735
0.00215999
0.00237777
0.00787758
0.00209084
0.0124271
0.0108218
0.0215748
0.0227881
0.0136595
0.00229865
0.0169556
0.0343842
0.011056
0.0116788
0.0546618
0.00230648
0.0508465
0.00988595
0.0103177
0.014684
0.00756501
0.00303296
0.0187648
0.0222518
0.0291912
0.00667432
0.0177867
0.0531179
0.00181704
0.113228
0.0125114
0.0137314
0.00552632
0.126584
0.0137262
0.00221312
0.00241255
0.0041991
0.0024135
0.0202957
0.00214417
0.000846287
0.0421918
0.0103811
0.0014936
0.014104
0.00176449
0.0168006
0.0266198
0.0171294
0.011217
0.0403508
0.0166051
0.0117097
0.00238374
0.000728587
0.0114058
0.115739
0.00428246
0.00221651
0.0143701
0.00261146
0.101309
0.0138281
0.0155553
0.0126246
0.00273223
0.00190599
0.0333314
0.00229674
0.0105363
0.0206827
0.0180633
0.00170883
0.0112432
0.0260376
0.0200606
0.0133201
0.00220365
0.0138453
0.0158278
0.00226371
0.0187502
0.00213642
0.0124126
0.00230304
0.0204499
0.0263762
0.0123101
0.00245058
0.0132398
0.0105854
0.0021313
0.0135821
0.0188063
0.00223459
0.0114303
0.095403
0.0112356
0.0182133
0.0121742
0.0124305
0.0113234
0.0021099
0.0167704
0.00240567
0.00211534
0.0112751
0.0819417
0.117693
0.010374
0.013254
0.00237787
0.0140121
0.0139792
0.0153734
0.00625606
0.0115024
0.0163223
0.0633214
0.00452908
0.00230531
0.0329493
0.0114851
0.015159
0.0296723
0.0136416
0.00203471
0.0145342
0.0153988
0.0268609
0.00311129
0.109192
0.00230425
0.0118646
0.0294334
0.0157371
0.0093477
0.0690829
0.0123822
0.0140026
0.00227427
0.0161959
0.0150083
0.0203148
0.00840831
0.00515169
0.0113839
0.0171177
0.0223573
0.021434
0.000918005
0.000892889
0.0238339
0.00224982
0.0125366
0.0116499
0.111499
0.0194427
0.0557871
0.0108936
0.0132838
0.028337
0.00213851
0.0048559
0.00166806
0.0986822
0.011078
0.0283806
0.00146558
0.017991
0.00913782
0.0105981
0.00229457
0.0208326
0.00269986
0.0109211
0.00116786
0.00578246
0.014333
0.0254287
0.00205232
0.00235652
0.013779
0.0307651
0.0166238
0.00530034
0.0144169
0.105708
0.00235441
0.0269877
0.000841275
0.000877584
0.00214492
0.00243396
0.0112887
0.013107
0.0112253
0.0608888
0.00509323
0.0168901
0.0153406
0.017101
0.0119734
0.0176267
0.00108265
0.00594463
0.00231995
0.0250046
0.0177369
0.011885
0.0200513
0.0467095
0.108644
0.00226357
0.0200014
0.0115707
0.0124172
0.125583
0.000788395
0.0851797
0.0225269
0.0507521
0.0364549
0.0214557
0.0167044
0.00228147
0.0218195
0.0953788
0.00389463
0.00188197
0.0115223
0.0109973
0.052905
0.083215
0.0172761
0.022415
0.0272116
0.00218223
0.00857925
0.0234334
0.00802548
0.00374494
0.0013859
0.0020433
0.00429823
0.0105366
0.0210706
0.115916
0.0659104
0.0123739
0.0383777
0.0174457
0.0167303
0.00322294
0.0198423
0.00229164
0.0153462
0.0113196
0.00223138
0.0540598
0.00228569
0.000883776
0.0210662
0.0362325
0.0366941
0.0117936
0.00248662
0.0535784
0.0126963
0.0129002
0.0332875
0.0024318
0.00227844
0.00243839
0.0194183
0.000964933
0.111971
0.00298096
0.00232279
0.0161709
0.0111856
0.0147049
0.0391151
0.00190745
0.0168246
0.00278693
0.00750411
0.0235469
0.0198077
0.0148873
0.0199537
0.0132281
0.0933527
0.00219538
0.00210805
0.0614043
0.0200399
0.00119752
0.0797136
0.0125138
0.0210539
0.0111501
0.0254821
0.00146817
0.0332605
0.00137771
0.00228587
0.0743571
0.0128513
0.0260857
0.0236986
0.0114982
0.0114984
0.0185835
0.00309219
0.00283039
0.0223351
0.0146537
0.0352355
0.0200071
0.015297
0.00228264
0.00100132
0.0185888
0.120284
0.0909444
0.00491395
0.0265922
0.0025823
0.00922258
0.0189553
0.0011041
0.08087
0.105716
0.0133359
0.0304276
0.0116862
0.0105459
0.111888
0.0320824
0.0266396
0.00573279
0.00319727
0.00263359
0.0176612
0.0258365
0.0118092
0.0617338
0.00242951
0.0241851
0.025074
0.007563
0.0239254
0.0202197
0.00293979
0.00292385
0.00279759
0.00269717
0.0021013
0.0210666
0.00310749
0.0110575
0.0665363
0.00491429
0.0315852
0.00227875
0.00267902
0.0114579
0.0117426
0.041159
0.00329363
0.0048543
0.0186198
0.012957
0.00144587
0.0104985
0.0027171
0.00104789
0.0818245
0.00459109
0.00240816
0.0145745
0.0315627
0.0178594
0.0835131
0.0121194
0.0277527
0.00118134
0.00208203
0.00809163
0.0735197
0.0195083
0.0045184
0.00159955
0.00167968
0.0125272
0.00162043
0.0279785
0.12124
0.0509165
0.0165959
0.0114375
0.00485027
0.000987335
0.00255875
0.00839852
0.00208039
0.0435219
0.00292557
0.0262542
0.107106
0.0178098
0.0324667
0.012829
0.0270352
0.0881671
0.015695
0.0237064
0.0503076
0.0558698
0.0314415
0.024215
0.0511791
0.0267994
0.0483136
0.00322329
0.00277425
0.0271858
0.0106676
0.0260763
0.0150329
0.0511993
0.0114544
0.00367486
0.00634614
0.00245027
0.0105223
0.00324453
0.00353147
0.0229789
0.0027156
0.00207126
0.100563
0.0514383
0.0147503
0.00122313
0.0161013
0.0402189
0.0122582
0.00289202
0.00290085
0.0384095
0.0316324
0.0370382
0.00251168
0.0307946
0.0534475
0.00262109
0.0021739
0.0251756
0.012037
0.0114488
0.134897
0.03622
0.0246764
0.014584
0.0220769
0.0124671
0.00612388
0.00990337
0.0519342
0.0088588
0.00123884
0.00235166
0.0377835
0.0167016
0.0299016
0.00938237
0.0126685
0.0212231
0.0137019
0.0118259
0.0228243
0.0107847
0.0249741
0.0196554
0.00907451
0.0246118
0.00918469
0.00502546
0.00843853
0.00876513
0.0350206
0.00520403
0.00738119
0.0294031
0.0293154
0.00657398
0.00558716
0.0129143
0.0146918
0.0166762
0.0195465
0.021726
0.011213
0.0236864
0.0102112
0.0229966
0.00873613
0.0179849
0.00808458
0.008609
0.0090755
0.00701584
0.00599244
0.00626498
0.00358874
0.00575145
0.0178373
0.00176744
0.00530396
0.00617542
0.00571966
0.00247316
0.0179669
0.00540992
0.0154766
0.0174719
0.0104744
0.00508786
0.00560185
0.00275833
0.0164613
0.0123698
0.0264185
0.00216204
0.0147338
0.00459695
0.00803308
0.00291924
0.00504199
0.0231817
0.00838063
0.0260469
0.00522922
0.00240158
0.00357652
0.00101158
0.00433253
0.0130292
0.0108609
0.00165989
0.00476257
0.0248924
0.00415089
0.00379527
0.00328519
0.0804436
0.00485545
0.000826045
0.0333341
0.00594778
0.0186816
0.0241426
0.0208811
0.0206997
0.0182657
0.0239771
0.00518992
0.0107952
0.0151627
0.0194047
0.00973176
0.0116053
0.00768914
0.05807
0.00688668
0.00373838
0.0208493
0.0190414
0.0267892
0.0174686
0.0165306
0.0034353
0.0444083
0.0197573
0.00869734
0.00604538
0.0079688
0.0156528
0.00215323
0.0174932
0.00402026
0.00381189
0.00598529
0.00423373
0.00386224
0.00560435
0.00538685
0.00873683
0.00520984
0.00448329
0.00504667
0.0375031
0.0104365
0.00366003
0.00757623
0.00648165
0.00486267
0.0263339
0.0161898
0.0220234
0.0117954
0.0053958
0.00351157
0.00543562
0.00493676
0.0529178
0.021664
0.0208998
0.00951697
0.00372335
0.010799
0.0113426
0.0171476
0.00401339
0.00586618
0.00178199
0.00221994
0.00714378
0.00255539
0.00259083
0.00129989
0.00349491
0.00154308
0.00206843
0.00166972
0.00151589
0.00120091
0.00284419
0.0038383
0.00224933
0.00239265
0.00859856
0.00517736
0.00598739
0.0379194
0.0226539
0.00112818
0.00163547
0.00468317
0.0256634
0.0160005
0.023114
0.014114
0.00949027
0.00366873
0.00387951
0.00519387
0.0079988
0.00842025
0.00334721
0.00558815
0.00322536
0.00651556
0.00202869
0.10106
0.00213832
0.0184129
0.00621109
0.027672
0.00344305
0.0046108
0.00645285
0.00454604
0.0131985
0.0103743
0.00487781
0.0150884
0.00285472
0.00323055
0.00189177
0.00185352
0.00152757
0.0014253
0.004762
0.00489873
0.00368032
0.018392
0.00371291
0.0177727
0.0191957
0.0185329
0.0051156
0.0140684
0.00470749
0.00173516
0.00674504
0.0013747
0.0110356
0.00335615
0.00147718
0.0162821
0.00311463
0.00200095
0.0149915
0.00332217
0.00916688
0.0178382
0.0113048
0.00533505
0.00976326
0.00355235
0.00782894
0.0035923
0.0185653
0.0316922
0.0022012
0.00975644
0.0135909
0.0146467
0.0307667
0.0169406
0.00437419
0.00857836
0.00736629
0.0063076
0.135282
0.0175741
0.00573829
0.00499978
0.00289596
0.022661
0.00507286
0.127131
0.0047556
0.00157859
0.00431534
0.00272343
0.00554474
0.00448467
0.00451523
0.0382011
0.00374976
0.0255114
0.00827911
0.0255223
0.00455203
0.0115237
0.0112844
0.0140506
0.014693
0.00777043
0.0159192
0.00866965
0.0162659
0.0178574
0.0209702
0.00786828
0.0196196
0.0188181
0.0107135
0.0296648
0.0236849
0.016706
0.0234852
0.00358261
0.00696447
0.00836554
0.00608664
0.00279032
0.00552334
0.0139582
0.00602957
0.00343507
0.0164194
0.0135107
0.0172298
0.0067305
0.0324424
0.0033122
0.00503958
0.00542135
0.00491616
0.00934289
0.0020187
0.0167261
0.0314499
0.0543292
0.00305754
0.00454991
0.0202251
0.0233787
0.00321958
0.0179218
0.0122859
0.0113331
0.0157517
0.0171313
0.00604362
0.0186189
0.0238478
0.0210842
0.0277231
0.0282276
0.030008
0.00312285
0.00833996
0.00822998
0.00450685
0.012818
0.015554
0.00478502
0.0245229
0.0031939
0.100903
0.00329454
0.00324285
0.0109501
0.00311734
0.000806143
0.00218447
0.00157845
0.00481761
0.00389505
0.00429874
0.00524128
0.0260567
0.0108739
0.00354661
0.0113389
0.00779616
0.0250446
0.0222091
0.0506271
0.0197977
0.00357267
0.00601657
0.00507468
0.00311174
0.00112359
0.00271645
0.0325409
0.0261705
0.00869611
0.0129515
0.0101837
0.0145723
0.0166299
0.0218612
0.0043445
0.0301854
0.0216661
0.0261618
0.0200971
0.0168946
0.0174324
0.00907476
0.0153185
0.0053132
0.013596
0.0105329
0.00589208
0.00930414
0.00821306
0.00748485
0.00475036
0.00463944
0.012224
0.0222701
0.0250165
0.00340986
0.0182769
0.00342076
0.00226537
0.00703822
0.00204903
0.0123312
0.0067203
0.00583171
0.00571618
0.00553635
0.00506779
0.029501
0.00247581
0.00316506
0.0249122
0.0064771
0.00117723
0.011869
0.0274368
0.0118934
0.0114906
0.0510777
0.00469018
0.0153771
0.018089
0.0202701
0.00974539
0.00333623
0.0173096
0.0145901
0.0152808
0.0132162
0.0113992
0.0103766
0.0307694
0.0089997
0.0209652
0.00389201
0.00711284
0.0342939
0.00611503
0.00848581
0.0454981
0.00637931
0.00107258
0.00240952
0.00561883
0.00294124
0.00423426
0.00350624
0.00328548
0.0273887
0.005175
0.00464497
0.0296508
0.00300565
0.00325744
0.00328426
0.0463511
0.00483033
0.0041548
0.0273973
0.00221316
0.00132547
0.00368196
0.00420873
0.00400407
0.0184876
0.00231457
0.00409669
0.0128813
0.0226521
0.0264134
0.0186844
0.0145712
0.00350321
0.00773989
0.00536977
0.00616058
0.00354698
0.0274117
0.00828986
0.00308364
0.00308721
0.00960801
0.00840599
0.0263082
0.0120354
0.00356602
0.0046915
0.00321136
0.0247366
0.00757722
0.00165553
0.0229571
0.00379966
0.0121676
0.00337852
0.00232799
0.00292557
0.010601
0.00479532
0.00383127
0.0209612
0.00338513
0.0258455
0.0079638
0.00260787
0.0167704
0.0044463
0.0138116
0.014649
0.00974194
0.0187317
0.0107957
0.00327528
0.0122077
0.0115876
0.00268356
0.00645106
0.00420501
0.00363213
0.00861294
0.00124334
0.00171485
0.0107776
0.00148389
0.00298833
0.0137692
0.00139232
0.00248725
0.0177851
0.00231045
0.00185118
0.0155121
0.034869
0.0302899
0.00214003
0.00324418
0.0211206
0.00226498
0.00244597
0.0368892
0.0206705
0.0367532
0.0079404
0.0320856
0.00448607
0.00676712
0.0132151
0.0181658
0.0034931
0.0158987
0.0426887
0.03451
0.00336644
0.00448605
0.0030651
0.00216347
0.00288159
0.00538863
0.00400785
0.130621
0.00891251
0.00484654
0.02454
0.00757076
0.0206523
0.00317014
0.0273691
0.00491077
0.00761117
0.0382096
0.00414913
0.0101837
0.00278971
0.00351753
0.0538166
0.00279005
0.0468762
0.0159464
0.0241186
0.0163975
0.0120894
0.0320321
0.00393427
0.00338638
0.0263332
0.0041088
0.004289
0.00421147
0.0378868
0.00275178
0.00305058
0.0039216
0.0445331
0.0037378
0.00717406
0.00660495
0.00300563
0.0168402
0.00992876
0.0123542
0.0431884
0.00202168
0.0162906
0.00380071
0.0122684
0.00271182
0.047886
0.00824562
0.00754221
0.00341415
0.0110119
0.0155314
0.00679217
0.0199582
0.023666
0.00295412
0.00694965
0.00272187
0.0216409
0.0199313
0.00232455
0.0103918
0.00807528
0.0115278
0.0116688
0.0163997
0.00660732
0.01517
0.0163826
0.0409669
0.0102827
0.0329379
0.00220927
0.0123217
0.00343815
0.00323234
0.0647966
0.0384427
0.0221856
0.00230405
0.035754
0.00776206
0.00629515
0.0411069
0.00662245
0.0465832
0.0103936
0.047139
0.0156052
0.00229852
0.106627
0.0144436
0.0136878
0.0116026
0.0401639
0.0462845
0.00291285
0.00427794
0.142672
0.033549
0.00328769
0.0462551
0.0487173
0.00448688
0.0333094
0.00444455
0.0406091
0.00771752
0.0116733
0.00160841
0.0358413
0.0368211
0.00213065
0.121771
0.0430279
0.00198394
0.0122982
0.00358604
0.0217106
0.0336059
0.0112155
0.00289033
0.031658
0.0315737
0.00773746
0.0450331
0.00715849
0.00419128
0.0118809
0.0116559
0.0395755
0.00289526
0.00241884
0.0260923
0.008704
0.00441692
0.00723993
0.00282686
0.0138756
0.0127312
0.0339589
0.0629289
0.0449114
0.00299306
0.0139284
0.00305312
0.0108848
0.0152463
0.00619543
0.0106769
0.00201914
0.0433662
0.0185148
0.00312491
0.00292214
0.014229
0.0285347
0.0463322
0.0516462
0.0177224
0.00690221
0.0129696
0.0023236
0.00308016
0.0040147
0.000962861
0.00253482
0.00458078
0.0356513
0.126237
0.00566915
0.00374085
0.00977005
0.0396542
0.00458083
0.0152798
0.00791212
0.0111968
0.00578435
0.0117448
0.0274565
0.028398
0.0151543
0.00279786
0.0161663
0.0815668
0.0115081
0.00393502
0.0111992
0.0267271
0.0151425
0.00267819
0.00304017
0.00745997
0.0124254
0.013875
0.0125311
0.00200658
0.0136791
0.00404311
0.00269335
0.0579101
0.0129343
0.0338965
0.014524
0.0177405
0.0208737
0.00965261
0.0029323
0.0373007
0.00298759
0.00799583
0.00752573
0.011275
0.0112142
0.0157496
0.00790712
0.0144474
0.0301222
0.0115041
0.0200775
0.00265202
0.0509738
0.00279075
0.00265229
0.0268559
0.0250477
0.0106346
0.0467632
0.0126813
0.00320668
0.0250639
0.00281388
0.0293222
0.038522
0.00282917
0.0190119
0.0503717
0.00574288
0.0420288
0.0191611
0.0333347
0.00798308
0.0468801
0.0433733
0.00288181
0.00971624
0.0433825
0.0029032
0.00254097
0.0367493
0.00240177
0.0126568
0.041431
0.0296477
0.0852583
0.00130513
0.00212842
0.00225552
0.0541196
0.0026184
0.00301543
0.00785013
0.0149156
0.00384555
0.00247878
0.00266536
0.0132
0.0128947
0.00261017
0.0112204
0.00232645
0.00243069
0.00206453
0.0753481
0.0236216
0.00254522
0.00293574
0.0207473
0.0319836
0.00330644
0.0164404
0.00250221
0.00236596
0.0329916
0.00297436
0.0278147
0.00223133
0.0174523
0.0108848
0.142668
0.0140762
0.0986626
0.0662054
0.00253428
0.0461441
0.00315502
0.00277397
0.00668801
0.0233514
0.00291817
0.0139088
0.0232573
0.0042009
0.00396128
0.0157813
0.0495921
0.0124524
0.0773193
0.0275451
0.0304919
0.00265481
0.0424042
0.0285047
0.00215187
0.0192206
0.00233016
0.00248795
0.0528083
0.0104934
0.010542
0.0614191
0.056208
0.00321555
0.0110352
0.00439228
0.0269034
0.00258051
0.0401046
0.0417002
0.0021778
0.0338392
0.0027487
0.00241023
0.00230128
0.0113278
0.0150816
0.104638
0.0350763
0.00368154
0.0592156
0.00251714
0.00246096
0.00214684
0.0327474
0.0113358
0.00232892
0.00707173
0.0624313
0.0148684
0.0167382
0.00272187
0.0112195
0.00367581
0.00409609
0.00538558
0.00110067
0.00520604
0.00179435
0.00237399
0.114196
0.00424599
0.00736162
0.00260929
0.0112228
0.0122705
0.0347504
0.0011038
0.0119269
0.0314813
0.00963368
0.00275353
0.0332145
0.00200893
0.0276664
0.0129669
0.011645
0.0075233
0.00388074
0.0612175
0.0490871
0.00251974
0.00385959
0.0547993
0.0421891
0.0215503
0.00537508
0.0314696
0.00439503
0.0118351
0.00760694
0.0126289
0.00243742
0.00371201
0.00708106
0.0141598
0.0111855
0.00252229
0.0119867
0.0144192
0.0132276
0.0128322
0.0198022
0.0308066
0.0267424
0.00264736
0.0387057
0.0405821
0.0346022
0.00100379
0.0157809
0.0188996
0.0123665
0.0416842
0.00191398
0.00277186
0.0320369
0.108486
0.0165871
0.0597527
0.00167785
0.0024056
0.00490994
0.00375354
0.0132504
0.00359985
0.00242597
0.0244655
0.0271548
0.0675108
0.0600427
0.100102
0.0501159
0.0531696
0.0210522
0.0141298
0.0368328
0.00652635
0.0333611
0.00156269
0.0193345
0.00211392
0.0605576
0.0110507
0.00686119
0.0123101
0.00206552
0.00725056
0.00709969
0.00270428
0.0127971
0.00262137
0.0511839
0.0406778
0.00353008
0.0304953
0.0317261
0.0161011
0.0331327
0.147425
0.0110046
0.0111997
0.0640436
0.0108427
0.0240035
0.00124327
0.0608594
0.00132052
0.0144767
0.0121938
0.00427382
0.0388821
0.0299329
0.00159861
0.0117156
0.00372412
0.0727162
0.0307657
0.00705175
0.0974678
0.00651127
0.026954
0.00314771
0.00732823
0.0590314
0.0175691
0.00828543
0.00224208
0.00298175
0.0146196
0.00422069
0.0800983
0.0143212
0.00805243
0.0629963
0.0020772
0.0107865
0.00998238
0.00264244
0.0273219
0.0632974
0.0358959
0.0230388
0.0139058
0.0596101
0.00267896
0.0160991
0.00231227
0.00252054
0.012737
0.00202683
0.0478389
0.0626778
0.0630461
0.0161167
0.018409
0.0291134
0.0105042
0.00268209
0.00896661
0.00297323
0.0136103
0.00688604
0.00442969
0.00907043
0.125062
0.00235816
0.0825195
0.045308
0.0125476
0.0116723
0.0427598
0.033445
0.00216326
0.141273
0.00341727
0.00228884
0.00234941
0.133393
0.00365354
0.00230637
0.00299764
0.0353798
0.00437488
0.0112563
0.00726226
0.011181
0.00843434
0.00283545
0.026302
0.00422454
0.00432502
0.0309038
0.00193565
0.0105596
0.00368407
0.0412043
0.0133548
0.00215624
0.0218587
0.0336599
0.0643535
0.00421465
0.00259657
0.087006
0.0647332
0.0812947
0.0579774
0.0706036
0.0543093
0.00220253
0.0236627
0.0569979
0.00589199
0.0121744
0.00203648
0.0106992
0.0257148
0.0107786
0.0161691
0.0753334
0.0192245
0.00168197
0.00202045
0.00217197
0.0125176
0.0112803
0.0166607
0.0271166
0.0584818
0.00790435
0.00256466
0.0569639
0.105207
0.0114585
0.00477891
0.0204195
0.00408413
0.0113067
0.0267025
0.012524
0.0108028
0.0104337
0.0141839
0.00461517
0.0978511
0.0127498
0.0599888
0.0404881
0.0108095
0.0117084
0.0112246
0.0325479
0.00449018
0.0141435
0.0222065
0.00547848
0.0117968
0.00656599
0.0285807
0.0126469
0.0285576
0.0556316
0.0507794
0.00595246
0.0491684
0.103951
0.00210208
0.0505499
0.00281275
0.0112695
0.0425167
0.00229933
0.00392649
0.0328155
0.00257356
0.00422383
0.00247593
0.00181914
0.0493497
0.00225056
0.0408855
0.0130663
0.0282976
0.00243297
0.00563427
0.00341356
0.0127102
0.00209499
0.0839452
0.082323
0.0264661
0.0310522
0.0145489
0.0132364
0.0323079
0.00546438
0.0720527
0.0707285
0.0278182
0.00744519
0.00214571
0.00226774
0.0259312
0.0316794
0.00393803
0.00249137
0.00409775
0.0142993
0.00236536
0.00671694
0.010047
0.014157
0.0168553
0.00686586
0.00520517
0.00285593
0.0612362
0.00594666
0.0119246
0.00818856
0.010331
0.00975242
0.00784218
0.0104918
0.011449
0.0472991
0.0271969
0.0186042
0.00988471
0.044235
0.00227389
0.010404
0.00929272
0.00192027
0.00415992
0.0335272
0.0703615
0.00194712
0.0425001
0.0135153
0.0869229
0.0135689
0.0568273
0.00333459
0.0113701
0.0619622
0.0101247
0.0234047
0.0755907
0.051818
0.00201807
0.0198917
0.00212954
0.0407906
0.0286124
0.0183179
0.00241482
0.00552704
0.0436284
0.00401435
0.00916768
0.00698755
0.0332533
0.00231547
0.0244148
0.00189947
0.0740567
0.00201221
0.0015488
0.00705141
0.0076451
0.0621157
0.0279094
0.00390698
0.00675684
0.0094527
0.00204377
0.0150254
0.00616646
0.0199978
0.0113039
0.0949315
0.00211295
0.00221708
0.0461274
0.0622024
0.0191666
0.144655
0.0551062
0.00389518
0.0261213
0.0787566
0.00252031
0.0637972
0.0237897
0.0362634
0.00693223
0.0710258
0.00207726
0.0493472
0.00211549
0.0465056
0.0114874
0.00222098
0.0905024
0.00275223
0.0434805
0.0378541
0.00596207
0.00278821
0.0988272
0.125578
0.00771693
0.0280197
0.061032
0.0017206
0.0149659
0.00665795
0.0119762
0.0036432
0.00197854
0.0128277
0.0705265
0.00469413
0.0420935
0.0270084
0.00246271
0.00211532
0.00215642
0.00238007
0.00725038
0.0157706
0.0192929
0.0056758
0.051617
0.0110137
0.00343287
0.00382256
0.00238735
0.0808357
0.0488739
0.00222718
0.00923871
0.0256256
0.00851816
0.0640886
0.0385355
0.00216061
0.00333497
0.0111385
0.00171508
0.00401034
0.0335101
0.054743
0.00215568
0.0021929
0.0134837
0.0673834
0.0850106
0.00233777
0.00143574
0.108257
0.0142364
0.00153259
0.0021947
0.0530687
0.0467543
0.103024
0.0071805
0.0607644
0.015736
0.116174
0.0639645
0.00236417
0.0375506
0.00234547
0.0170584
0.00262256
0.00293101
0.0104008
0.0152017
0.00892798
0.0253801
0.00132734
0.00720585
0.0138738
0.0400761
0.00597286
0.0859033
0.0271128
0.0402188
0.00261013
0.0933131
0.0229857
0.0107089
0.0117761
0.0120277
0.0422632
0.00134445
0.0307541
0.04991
0.00139227
0.0193187
0.011083
0.00258782
0.00258622
0.00220347
0.0113936
0.00577576
0.00289273
0.053466
0.140142
0.00149771
0.0538076
0.0605178
0.0914999
0.0220112
0.0301248
0.0684736
0.00228629
0.021961
0.0162103
0.00204545
0.00410175
0.00246983
0.00151044
0.00378508
0.0252573
0.0104631
0.0715683
0.00186729
0.0116124
0.00235193
0.00258512
0.00207821
0.0651407
0.0297537
0.0045883
0.00245528
0.0283637
0.0105064
0.0386528
0.0370334
0.0418115
0.0294932
0.00226225
0.00224972
0.0117929
0.00222844
0.0112341
0.00258419
0.0202712
0.0473544
0.0151588
0.0685941
0.00284389
0.00206652
0.0216923
0.028807
0.0173585
0.0142325
0.0114678
0.0122788
0.127438
0.0902101
0.0324549
0.0737497
0.0137695
0.00182873
0.0107185
0.00765696
0.0384681
0.00221399
0.00214721
0.00738542
0.0362057
0.0143647
0.0192909
0.0107855
0.0121082
0.00229056
0.0669313
0.0257937
0.0270531
0.00225137
0.138876
0.0673533
0.033597
0.00126324
0.0713179
0.0169174
0.014352
0.00201986
0.0160693
0.00652468
0.00258392
0.0134749
0.0154545
0.0235269
0.0200474
0.115939
0.056351
0.00246498
0.0499187
0.00219376
0.0110012
0.0062089
0.0406459
0.00252609
0.0021873
0.0750453
0.0104338
0.00225348
0.0723556
0.0259229
0.0242659
0.00226129
0.00223096
0.0112654
0.0336492
0.00194584
0.00230217
0.00221805
0.0545821
0.00243
0.00255574
0.00745289
0.00469745
0.0577194
0.00355267
0.0291794
0.00201118
0.0114055
0.0657629
0.0175387
0.0239042
0.0120239
0.00227705
0.00167058
0.00167948
0.00254837
0.032452
0.00445264
0.00300803
0.0530094
0.0111983
0.0115913
0.0472114
0.0141259
0.00272385
0.00246725
0.00312434
0.0123546
0.0160291
0.00147883
0.0415567
0.00979634
0.085227
0.0739976
0.0134444
0.00462181
0.0718769
0.00252122
0.00204402
0.013238
0.105342
0.00400481
0.00218174
0.0131095
0.0159941
0.00219459
0.00224559
0.0197895
0.0119208
0.00200383
0.00219989
0.0108042
0.006866
0.0409359
0.00199907
0.122337
0.0657431
0.00197079
0.0742474
0.0110562
0.0396766
0.0409948
0.0642538
0.0609804
0.076731
0.01597
0.00929157
0.00730253
0.0020955
0.00264543
0.0110099
0.00889813
0.0371893
0.0707083
0.00226158
0.0017008
0.00221985
0.00206453
0.00213938
0.00220989
0.0117858
0.00505675
0.00176457
0.010762
0.00198511
0.00234295
0.00333782
0.00226516
0.0315013
0.0315248
0.0173783
0.016924
0.0109806
0.0333929
0.00650416
0.0105623
0.00178118
0.0130058
0.00215539
0.0139581
0.0713706
0.0145938
0.00442231
0.00194617
0.00653085
0.0391747
0.0384999
0.0111585
0.00254312
0.00797411
0.00222513
0.0584609
0.0109967
0.0165727
0.00321558
0.00347465
0.0120775
0.00802696
0.0344098
0.0189142
0.00485728
0.00197071
0.0023706
0.00391827
0.0492227
0.0221551
0.0836009
0.0228006
0.0108199
0.0455959
0.0245693
0.025947
0.0178221
0.0483081
0.0112013
0.00293279
0.0667442
0.06341
0.0113964
0.0109924
0.0173608
0.00234365
0.0116545
0.0073519
0.0144212
0.087511
0.0177132
0.00507776
0.0077794
0.047493
0.0771575
0.00193635
0.0128684
0.0129968
0.00483556
0.00224528
0.00228068
0.00109576
0.00450777
0.00278253
0.00221556
0.130645
0.0114448
0.0517566
0.0559445
0.0131176
0.00215682
0.0218265
0.0226621
0.0167603
0.00979747
0.0127323
0.0022441
0.0996747
0.0376353
0.068134
0.000986058
0.00195042
0.00207984
0.0150287
0.0168988
0.0118474
0.001893
0.0109401
0.042748
0.00223224
0.00131321
0.00500586
0.0771601
0.00169322
0.00624947
0.0109285
0.0130231
0.00336071
0.0867678
0.0367624
0.0989958
0.0131155
0.0208569
0.0262694
0.00239395
0.0259344
0.133335
0.0125773
0.00699102
0.0128627
0.0547623
0.0196111
0.0146843
0.0110884
0.0288082
0.00225138
0.0343393
0.00112804
0.00236095
0.00226654
0.0374069
0.0117379
0.0404486
0.0899106
0.0120312
0.0221241
0.00169911
0.0193225
0.00223448
0.00921144
0.0276185
0.0249098
0.00186584
0.00234201
0.0486694
0.00111925
0.0569296
0.00155395
0.0558831
0.00258563
0.0278979
0.00186644
0.0511593
0.0122648
0.0344096
0.0564605
0.0235785
0.0258911
0.00110465
0.0490578
0.0300893
0.0235956
0.0197034
0.0117921
0.0248352
0.0293712
0.00226021
0.030694
0.0479605
0.00621121
0.051833
0.0926952
0.00198279
0.0114464
0.00304556
0.0663874
0.00246484
0.00238372
0.00227187
0.0366566
0.127798
0.0265068
0.012348
0.0191132
0.00200935
0.00933048
0.00306324
0.00587054
0.00237314
0.010935
0.0100923
0.00957772
0.00216978
0.0754652
0.0727195
0.00175707
0.00552053
0.0327125
0.0373818
0.0275916
0.00210546
0.00220622
0.0103603
0.0349018
0.00258725
0.00200349
0.0846664
0.0253275
0.00175974
0.00593302
0.0214827
0.0212394
0.0364486
0.0344934
0.0273342
0.0106477
0.0105124
0.0474082
0.0552384
0.00292232
0.0119483
0.0107133
0.00224093
0.00284441
0.0106327
0.00256762
0.0266878
0.0509381
0.00329455
0.033101
0.0972202
0.0030775
0.0150939
0.00381648
0.0331323
0.0201368
0.00946299
0.0114183
0.0894009
0.0103192
0.00583943
0.0111873
0.00620575
0.0828261
0.0400018
0.0430518
0.00914218
0.00614889
0.00353159
0.0107651
0.00149252
0.00124627
0.00954155
0.019921
0.00389582
0.00876277
0.00928704
0.00235392
0.04312
0.0108272
0.0112457
0.00200031
0.129624
0.00387087
0.00214409
0.00436939
0.0285619
0.00308783
0.00313508
0.0128771
0.00261732
0.00360275
0.00986934
0.0510505
0.00374297
0.0477996
0.0105529
0.00592297
0.0380793
0.0165363
0.00359884
0.112776
0.0122698
0.0677612
0.0041285
0.025903
0.00350843
0.027773
0.134168
0.00324204
0.0172339
0.00973594
0.0112803
0.00220118
0.00223378
0.00445952
0.00215217
0.00285732
0.00351175
0.0171884
0.010507
0.00255208
0.00213551
0.00321858
0.0181972
0.0324386
0.0341808
0.0146632
0.00914996
0.135304
0.00256859
0.00236117
0.00402728
0.00243983
0.00244796
0.0202154
0.00361974
0.00505335
0.0284456
0.0107838
0.0103923
0.0387217
0.0432302
0.0025373
0.0625286
0.0123562
0.0225354
0.0259918
0.017253
0.0164677
0.0384918
0.0028623
0.0145405
0.00200063
0.0119552
0.00145855
0.0388164
0.00662208
0.00340781
0.012986
0.0300451
0.026757
0.00233045
0.0216891
0.0297301
0.0173601
0.0011626
0.00533456
0.00638322
0.0196345
0.00710236
0.124896
0.0229274
0.0064129
0.0108231
0.00137793
0.00210445
0.00806898
0.00207787
0.0407687
0.0146745
0.00213555
0.00472277
0.032797
0.00675943
0.0489932
0.0218291
0.0237221
0.00592453
0.0016275
0.0235155
0.0742087
0.002472
0.00150839
0.0107925
0.00163853
0.00268082
0.0240895
0.0069302
0.042954
0.0263286
0.0554212
0.00701214
0.0233945
0.00171455
0.0019099
0.00262472
0.0321629
0.000995296
0.000849328
0.00122682
0.0124816
0.0106121
0.00136967
0.0287099
0.0643876
0.0378474
0.00220993
0.0227875
0.0968277
0.0317107
0.00267014
0.0140615
0.00299307
0.0572229
0.00153832
0.0113557
0.0277267
0.0311918
0.00215886
0.00324945
0.0130753
0.0358882
0.0469639
0.00426016
0.0469413
0.00124209
0.00247857
0.028431
0.0133738
0.00256312
0.0435731
0.0127632
0.00234483
0.0107863
0.0269548
0.0111917
0.00163777
0.00226846
0.0269262
0.00972659
0.00218342
0.026148
0.0625937
0.0369783
0.0128057
0.00150676
0.00240864
0.0142907
0.0503244
0.0145206
0.0545622
0.0806006
0.0690518
0.00215182
0.00218517
0.00457248
0.00211202
0.00218324
0.0294599
0.038497
0.00229949
0.0023837
0.00227199
0.00123762
0.0214834
0.0159996
0.0130193
0.00109953
0.000972074
0.00108573
0.0141408
0.0287621
0.0108843
0.00234535
0.0416868
0.00406877
0.00420758
0.0401237
0.00406235
0.0175468
0.0289611
0.00197137
0.0127463
0.00203777
0.0124518
0.0113267
0.00899564
0.0658446
0.00227293
0.0249377
0.0311966
0.0135682
0.00399795
0.0760314
0.0880208
0.00236163
0.00179291
0.0110628
0.0127794
0.00603513
0.0349576
0.0731244
0.0135837
0.0191121
0.0846184
0.0275483
0.0106535
0.0461797
0.0400682
0.0731865
0.0433854
0.0117417
0.0527533
0.000955512
0.00291993
0.00178421
0.0135458
0.00172124
0.0654738
0.0231907
0.00220671
0.00191485
0.000762486
0.000850474
0.00186074
0.0142458
0.0219633
0.0113092
0.0260617
0.0265146
0.0150917
0.00169487
0.00207757
0.0129553
0.00434445
0.00235345
0.0022343
0.00286452
0.0164837
0.00219084
0.0106101
0.00211835
0.00401457
0.0230836
0.00128651
0.0115625
0.0137283
0.0511992