/*--------------------------------*- C++ -*----------------------------------*\
  =========                 |
  \\      /  F ield         | OpenFOAM: The Open Source CFD Toolbox
   \\    /   O peration     | Website:  https://openfoam.org
    \\  /    A nd           | Version:  10
     \\/     M anipulation  |
\*---------------------------------------------------------------------------*/
FoamFile
{
    format      ascii;
    class       volScalarField;
    location    "800";
    object      k;
}
// * * * * * * * * * * * * * * * * * * * * * * * * * * * * * * * * * * * * * //

dimensions      [0 2 -2 0 0 0 0];

internalField   nonuniform List<scalar> 
23845
(
0.0800149
0.0958915
0.0704605
0.0468004
0.0912889
0.0243753
0.0823557
0.0346809
0.0195737
0.0635963
0.0766899
0.0229032
0.02678
0.0220042
0.0910667
0.0465453
0.0387242
0.0477246
0.0296345
0.0279597
0.0669649
0.0731905
0.0631
0.0194879
0.069255
0.015511
0.075235
0.0264714
0.0201629
0.0275835
0.0506191
0.0186945
0.0865565
0.0486016
0.0229987
0.0255948
0.0159803
0.0230462
0.0234063
0.0208958
0.0279889
0.0388699
0.0241338
0.0389248
0.0130542
0.0300181
0.0782035
0.0506137
0.0237848
0.0154581
0.0303401
0.0724197
0.0198656
0.0244058
0.0181138
0.0351942
0.0942535
0.0370037
0.0766817
0.0742554
0.0272695
0.0400632
0.0443017
0.0247915
0.0180706
0.0274553
0.0767599
0.0120163
0.0121754
0.0330994
0.0312966
0.0619362
0.017764
0.088327
0.0163985
0.0913571
0.0229041
0.0235884
0.0408722
0.0468548
0.0694334
0.0892188
0.0972489
0.0376847
0.0683571
0.0230796
0.0876216
0.019565
0.0178656
0.0414417
0.0271906
0.0317956
0.0215845
0.0255459
0.0368348
0.027654
0.0357956
0.0534877
0.0162233
0.0838972
0.0383646
0.0783127
0.0978195
0.0112976
0.0207063
0.0393308
0.0243272
0.0151783
0.0754859
0.03817
0.0726044
0.0231861
0.0802704
0.0601199
0.0261622
0.0589712
0.0171272
0.0504186
0.020844
0.0321464
0.0233442
0.0223374
0.0335153
0.0451466
0.0796043
0.0163273
0.0285266
0.0153624
0.0551053
0.0789239
0.0550739
0.0916103
0.0827896
0.0230769
0.0433824
0.0912706
0.0102812
0.0227854
0.0745194
0.0235935
0.0174457
0.0377436
0.0236464
0.0405894
0.0407134
0.0371232
0.0540116
0.0819328
0.0348825
0.0438393
0.0882651
0.0219819
0.0893903
0.0247179
0.0764811
0.0610625
0.0975742
0.0240614
0.0612445
0.025651
0.0375159
0.0906904
0.0364456
0.0185241
0.0203987
0.0515106
0.0235835
0.0230508
0.027187
0.0369204
0.0235047
0.0477098
0.0191867
0.0439378
0.0185889
0.0390865
0.0339101
0.069983
0.0148973
0.023873
0.0848961
0.0803072
0.0892561
0.0690558
0.0444733
0.0306216
0.0388446
0.0365702
0.0185144
0.0378704
0.0224959
0.0224489
0.0222361
0.0239256
0.0387692
0.0216636
0.0164812
0.0188114
0.0134454
0.0736287
0.0569567
0.0228153
0.034751
0.0895096
0.0365998
0.03642
0.06713
0.0238901
0.0810128
0.0503783
0.0500243
0.0215221
0.0371746
0.0271596
0.026295
0.0173684
0.0846313
0.0410012
0.0104628
0.0568405
0.0191006
0.0904195
0.0160019
0.0533977
0.0377257
0.0891898
0.0106823
0.0225894
0.0244103
0.0285575
0.0246631
0.0256001
0.0233573
0.0129627
0.0935604
0.0241406
0.0175958
0.0482007
0.0192555
0.0481414
0.0217204
0.0524504
0.0386255
0.0933557
0.0238805
0.046349
0.0240153
0.0120692
0.0379419
0.0908334
0.0312629
0.0237808
0.0301658
0.0230159
0.0881813
0.027159
0.0351948
0.0317947
0.026347
0.0203546
0.0176597
0.0242088
0.0296865
0.0708338
0.0655968
0.019203
0.0401529
0.0452853
0.0591049
0.0463468
0.0236049
0.0451576
0.0300029
0.0229216
0.0693531
0.0220169
0.030944
0.0231246
0.0209196
0.0625662
0.0400717
0.0245601
0.0328612
0.0456724
0.0233315
0.0296546
0.0469467
0.0222811
0.036341
0.0839285
0.0392505
0.0275004
0.0256582
0.0308191
0.0378675
0.0232018
0.0308374
0.0239367
0.0232426
0.0224131
0.0612975
0.087425
0.0238295
0.0467526
0.0237435
0.0485047
0.0246324
0.0301082
0.0371688
0.0153954
0.0296329
0.0901086
0.0307044
0.0236489
0.0633079
0.0167308
0.0296145
0.0850937
0.0261545
0.0202091
0.0210753
0.0223594
0.0372224
0.0275295
0.088964
0.0239369
0.0429417
0.0755286
0.0356725
0.0494434
0.0792158
0.0509916
0.0290662
0.0241142
0.0344735
0.0490062
0.0535769
0.0469153
0.036047
0.041076
0.0492598
0.035683
0.0733736
0.0135015
0.0132895
0.0195029
0.023986
0.0292512
0.0419713
0.0827515
0.0539954
0.0542132
0.0149168
0.0313276
0.0201067
0.0221509
0.0354161
0.0185394
0.0863331
0.0379326
0.0485696
0.0174652
0.0533166
0.04273
0.0195639
0.0235807
0.0404266
0.0260926
0.0215337
0.0153012
0.0383237
0.0255395
0.0294192
0.0228841
0.0244614
0.0285484
0.059496
0.0504632
0.0365634
0.0441528
0.089962
0.0245026
0.0619601
0.0129185
0.0132081
0.0233258
0.0246777
0.040284
0.0571826
0.0380252
0.0786113
0.0361208
0.0259533
0.0220053
0.0287764
0.0238315
0.0661609
0.0146537
0.0341699
0.0243575
0.0577479
0.0560619
0.0346873
0.0513664
0.0838158
0.0903806
0.023717
0.0273708
0.0199596
0.0330531
0.0910546
0.0125222
0.0851336
0.0389325
0.0984541
0.0646576
0.0618457
0.0658603
0.023916
0.0573158
0.0622515
0.031322
0.0203881
0.0418471
0.0316803
0.0862484
0.0567334
0.0532085
0.0486803
0.0506212
0.0222718
0.0468755
0.0351613
0.0461361
0.0295454
0.0167028
0.0228404
0.0301268
0.0231349
0.0502249
0.0909785
0.0483072
0.0196402
0.0525496
0.0544168
0.029474
0.0281575
0.0619467
0.0240022
0.0462433
0.0408293
0.0216443
0.0424291
0.0241704
0.0132852
0.0351958
0.0767864
0.0916426
0.0328998
0.0240539
0.0793008
0.0452613
0.0103276
0.0770635
0.0247072
0.0238891
0.0243349
0.0261193
0.0138484
0.0813559
0.0270211
0.0238936
0.0534217
0.0306734
0.0266032
0.0918863
0.0199068
0.0249429
0.0258602
0.0394136
0.0697565
0.0616473
0.0503602
0.0717105
0.058111
0.087712
0.0236044
0.0231729
0.0765892
0.0391856
0.0155474
0.0630796
0.0285345
0.0648274
0.0359529
0.0737977
0.0172086
0.0600608
0.0168513
0.0241449
0.0874078
0.0189186
0.0402374
0.0710798
0.0390648
0.0402174
0.0679796
0.0250113
0.0265882
0.0392094
0.0499716
0.0429023
0.015958
0.0515531
0.0231382
0.0140959
0.058817
0.0813644
0.0747736
0.0349116
0.0153782
0.0244239
0.0488448
0.0299079
0.0147532
0.0840645
0.0891249
0.0269341
0.0637883
0.022928
0.0248138
0.0698632
0.0872411
0.0640518
0.0346834
0.0254227
0.0250443
0.0339768
0.0767922
0.0416795
0.0688736
0.0236144
0.0605142
0.0608189
0.0379829
0.0592546
0.0723554
0.0247962
0.0266571
0.0245478
0.0244142
0.0231657
0.0444604
0.0262326
0.0363929
0.0908471
0.0353705
0.0422353
0.0241432
0.0258532
0.037815
0.0426052
0.0828165
0.0286359
0.035153
0.0238397
0.0220875
0.0170811
0.0223317
0.0234729
0.0143909
0.0848133
0.0310861
0.0242894
0.0499285
0.0844228
0.0398208
0.0674095
0.0327152
0.0790489
0.0152467
0.0230214
0.039199
0.0778059
0.0313958
0.0342737
0.0179204
0.0183944
0.0334546
0.0181348
0.0658803
0.0871621
0.0856137
0.0653942
0.0292924
0.0354605
0.0139515
0.0243368
0.0466848
0.0229998
0.0673806
0.026373
0.0792144
0.0900213
0.048069
0.0809524
0.032674
0.0791323
0.0858294
0.0590578
0.070325
0.098759
0.0931242
0.0849139
0.0332075
0.0911922
0.0817643
0.0991513
0.0281283
0.0254909
0.0800328
0.0274969
0.0765021
0.0589369
0.0971585
0.0551487
0.0267266
0.0407854
0.0219511
0.0427671
0.0261964
0.0277838
0.0668836
0.0259115
0.0229899
0.0831308
0.0949645
0.0499511
0.0155119
0.0643025
0.0863025
0.0556107
0.0269279
0.0242409
0.0770062
0.0846377
0.0709966
0.0225542
0.0793659
0.0614683
0.0259259
0.0235704
0.0796907
0.0410685
0.0261131
0.0806167
0.0420356
0.0679037
0.0359234
0.0737492
0.0552573
0.0356166
0.0492237
0.0995667
0.0454848
0.0156017
0.021515
0.0920183
0.0548463
0.0818843
0.040807
0.058003
0.0703714
0.0603957
0.0561188
0.0770691
0.053607
0.079733
0.0671691
0.0461949
0.0756336
0.0494381
0.0351416
0.0473135
0.0454586
0.0879884
0.0340894
0.0442435
0.0843
0.0779673
0.0416241
0.036749
0.0587225
0.0626565
0.0666056
0.0719618
0.0755636
0.0547147
0.0782436
0.0522027
0.0722655
0.0482224
0.063777
0.0463698
0.0466708
0.0471263
0.0431534
0.0396655
0.0406483
0.0267794
0.0368104
0.0565925
0.0192599
0.0353903
0.0381272
0.0388029
0.0246376
0.0665344
0.0376929
0.064004
0.0679595
0.0526891
0.0364941
0.0364199
0.0265228
0.0557085
0.0492668
0.0812367
0.0213855
0.0622979
0.0346626
0.0456729
0.0271503
0.0345596
0.0772177
0.0460778
0.0797422
0.0369354
0.0232673
0.0292391
0.0141707
0.0335775
0.0556724
0.0325436
0.0183424
0.0352436
0.0796579
0.0328657
0.0303582
0.0285942
0.08236
0.0344381
0.012791
0.0862735
0.0374043
0.0400097
0.0727742
0.0680414
0.0738772
0.0696345
0.0785993
0.0358831
0.0537119
0.0625468
0.0706511
0.0510045
0.0488598
0.0451877
0.0994082
0.0426633
0.0311595
0.0742582
0.0710372
0.0818796
0.0509825
0.0607412
0.029079
0.0975143
0.0662539
0.0463188
0.0399193
0.0460148
0.0291976
0.0220897
0.0643715
0.0322895
0.0284652
0.039403
0.0331168
0.0316487
0.0383452
0.0353772
0.0462547
0.0359469
0.034183
0.0345339
0.0841452
0.0522456
0.0298807
0.0444157
0.0410714
0.0333186
0.0815896
0.0618344
0.0723233
0.0526385
0.0364411
0.0291784
0.0359485
0.0347153
0.098492
0.0666078
0.0739989
0.0456502
0.0310428
0.0534425
0.0234937
0.0639871
0.0279569
0.0333155
0.0187698
0.0209235
0.0362573
0.022416
0.0225568
0.0160776
0.0260841
0.017472
0.0201687
0.0181818
0.0172988
0.0154483
0.023602
0.0272932
0.0210397
0.0217022
0.0393119
0.0366392
0.0395096
0.0612191
0.0768568
0.0149196
0.0186984
0.0343605
0.0727279
0.0652893
0.0740761
0.0614219
0.048322
0.0266491
0.0274759
0.0315459
0.0382962
0.047335
0.0286181
0.0372857
0.0262932
0.0355389
0.0227541
0.0887062
0.0233599
0.059417
0.0390336
0.0831418
0.029879
0.0320097
0.0346477
0.0295098
0.0469741
0.0425851
0.0305104
0.0495806
0.0236738
0.0250957
0.0192893
0.019055
0.0173106
0.0167333
0.0315244
0.0358104
0.0309216
0.0606232
0.0302678
0.0609178
0.0604249
0.0699278
0.0311931
0.04819
0.030011
0.0184342
0.0353344
0.016446
0.0436374
0.0255642
0.0170328
0.0510866
0.0246335
0.0198271
0.0629691
0.0280732
0.0482786
0.0573983
0.0545859
0.0360802
0.0509306
0.0287786
0.0454756
0.0305355
0.0667255
0.0355731
0.0237238
0.0509437
0.0599444
0.0623254
0.0850255
0.0668796
0.0334183
0.0402434
0.0440117
0.0404663
0.0902774
0.0223888
0.0387986
0.0361481
0.025999
0.0646096
0.0350025
0.0918533
0.0350163
0.0176789
0.0295291
0.0231145
0.0369693
0.0341693
0.0314909
0.0926643
0.0310894
0.060293
0.0402287
0.080452
0.0342019
0.0476531
0.0545431
0.0604983
0.0620913
0.0414426
0.0559005
0.0477925
0.0655592
0.0687791
0.0740933
0.0453831
0.06889
0.0699299
0.0486411
0.0839647
0.0755496
0.0660783
0.0667352
0.0304392
0.0427956
0.0443611
0.0398913
0.0267198
0.0379754
0.0539787
0.0395684
0.0298161
0.0647705
0.0542929
0.0649953
0.040611
0.0686883
0.0292759
0.0335769
0.0374866
0.0357546
0.046662
0.0202574
0.0663911
0.086211
0.0967834
0.026182
0.0343223
0.072602
0.0777341
0.0288165
0.0562378
0.0562501
0.0538936
0.062943
0.0553455
0.0355
0.0692362
0.0780498
0.0721694
0.0761136
0.0824005
0.0827231
0.0257844
0.0451557
0.0453168
0.0341425
0.052924
0.0567509
0.0328296
0.0217332
0.0270137
0.0733541
0.0268132
0.0279933
0.0155068
0.0283432
0.0126555
0.0235667
0.0175903
0.0348485
0.0318194
0.0325059
0.0352763
0.0811103
0.0265417
0.0303307
0.0542889
0.0401722
0.0735456
0.067537
0.0949152
0.0716757
0.0303834
0.0383915
0.0362937
0.0272276
0.0149605
0.02551
0.0849648
0.0804636
0.039639
0.0469045
0.0424117
0.0492606
0.0519988
0.0757411
0.0336293
0.0857234
0.067984
0.0748744
0.0729231
0.0597498
0.0680078
0.0473381
0.063944
0.0372909
0.0602615
0.0530144
0.039391
0.0497127
0.0467175
0.0444516
0.0352312
0.0339385
0.056551
0.0585544
0.0799649
0.029676
0.0538564
0.0296656
0.0217752
0.0424338
0.0228537
0.0570224
0.0419105
0.037893
0.0384695
0.0343557
0.0340403
0.0830179
0.0224277
0.0285072
0.0627053
0.0399517
0.0153416
0.0563071
0.0828493
0.0509606
0.0237913
0.0695146
0.032917
0.0568352
0.0610804
0.0727371
0.0495973
0.0293464
0.0675504
0.0566856
0.063634
0.0593395
0.0549862
0.0523761
0.030159
0.0488426
0.0628641
0.0317151
0.0433286
0.0826837
0.0355384
0.0444961
0.0471674
0.0408476
0.0145788
0.0221227
0.0383128
0.0272906
0.0331902
0.0300398
0.0275899
0.0826739
0.0367404
0.0347636
0.0650391
0.0278285
0.0289899
0.0289137
0.0858202
0.0326998
0.0319618
0.0821428
0.0210721
0.0164758
0.030897
0.0303573
0.0284697
0.043784
0.0215534
0.0324836
0.0516291
0.0757288
0.0808607
0.0694901
0.061767
0.0289829
0.0447955
0.0372003
0.0396465
0.0298825
0.0826818
0.0457499
0.0271818
0.0282105
0.0503094
0.0453433
0.0607574
0.0378076
0.0297578
0.0337159
0.0276908
0.0739829
0.0420436
0.0180106
0.075224
0.0314135
0.0439622
0.0293155
0.0240315
0.0274694
0.0490279
0.034456
0.0276747
0.0706088
0.0290996
0.0734115
0.0439713
0.0236764
0.0645709
0.0330752
0.055728
0.0583994
0.0466643
0.064594
0.0516507
0.0290027
0.0547218
0.0555406
0.0229646
0.0412579
0.0290699
0.0266534
0.0394981
0.015718
0.018424
0.0434426
0.0171428
0.0241702
0.0481009
0.0166353
0.0221105
0.0533958
0.0213323
0.0191318
0.0505324
0.0904217
0.0790406
0.021679
0.0272312
0.0595344
0.0237796
0.0250549
0.0906758
0.0630828
0.0897928
0.0431133
0.0737469
0.0330199
0.0416675
0.0480703
0.0690693
0.0292949
0.0648745
0.0936819
0.0304461
0.0286745
0.0340441
0.0280649
0.0234719
0.0272208
0.0374569
0.0322896
0.0907971
0.048581
0.0354957
0.0792604
0.0409857
0.0734753
0.0285915
0.0617786
0.0332012
0.040976
0.086272
0.0296261
0.051334
0.0267678
0.0281227
0.0547278
0.0267993
0.0906035
0.0625872
0.0780317
0.043227
0.0429332
0.0876679
0.0304137
0.0274258
0.073548
0.031119
0.0318099
0.0315201
0.07413
0.0261925
0.0264637
0.0288462
0.0965752
0.0274802
0.0396616
0.0415724
0.0276538
0.0266967
0.0471203
0.0525945
0.0906285
0.0227179
0.0129259
0.0294628
0.0251077
0.0263838
0.09723
0.0439486
0.0423534
0.0293592
0.0507211
0.061377
0.0398111
0.068949
0.0699533
0.0243657
0.0401759
0.02641
0.0666508
0.0638681
0.0237773
0.0496158
0.0443829
0.0518324
0.0490175
0.0632378
0.0418097
0.0578092
0.0618276
0.0830435
0.0507434
0.0819259
0.0227547
0.0573907
0.0296485
0.026714
0.0687669
0.0864507
0.0652561
0.0235002
0.0876509
0.0434625
0.0380518
0.0890107
0.0391339
0.0809783
0.0262583
0.0989398
0.0613321
0.0237345
0.0787816
0.0582965
0.0563488
0.051511
0.0908737
0.0883239
0.0272157
0.0322018
0.0912047
0.0657434
0.0278294
0.0975664
0.0969762
0.0318909
0.0435722
0.0334847
0.0784205
0.0440531
0.0446996
0.0183111
0.0849723
0.0685687
0.0232968
0.089465
0.0832638
0.0210717
0.0332271
0.0283762
0.0613388
0.0725658
0.0394623
0.0264241
0.0832884
0.0648978
0.0445169
0.0918547
0.0416186
0.0329839
0.0543204
0.0511591
0.0860132
0.0272467
0.0228175
0.0779432
0.0434612
0.0330663
0.0432887
0.0251373
0.059799
0.0554331
0.0765061
0.0827853
0.0958782
0.0276896
0.0584019
0.0275195
0.0508634
0.0614044
0.0395297
0.0292118
0.0204454
0.090148
0.0144337
0.0269572
0.0262118
0.0558037
0.0810807
0.0939168
0.0933419
0.067603
0.0426336
0.0586626
0.0231851
0.0277815
0.03075
0.013804
0.0254885
0.0339697
0.0774412
0.0804434
0.0352643
0.0283878
0.0470763
0.070249
0.0335058
0.0592174
0.0444725
0.0532229
0.0385233
0.0534255
0.0810621
0.0803651
0.061702
0.0267058
0.0638756
0.0868516
0.0307655
0.0319016
0.0519965
0.0775706
0.0611874
0.0240659
0.0279655
0.0425555
0.052268
0.0586434
0.0181801
0.0207213
0.0327343
0.0320052
0.0262972
0.0822205
0.0552631
0.089061
0.0597942
0.062913
0.0680231
0.0445588
0.0260371
0.0839819
0.0275573
0.0448788
0.0440925
0.051659
0.0395306
0.0627117
0.0416024
0.0613091
0.0755102
0.0322674
0.0705122
0.0240703
0.088758
0.0267725
0.02592
0.0815085
0.0704004
0.0259074
0.0445769
0.0576437
0.0285827
0.0747551
0.0256267
0.0721841
0.0908542
0.0269019
0.0673018
0.0977858
0.0357018
0.0798215
0.0689033
0.0880119
0.041962
0.083171
0.0965077
0.0257299
0.0469325
0.0586407
0.0257331
0.0238354
0.0789277
0.0247528
0.0511567
0.0957789
0.0735713
0.0690258
0.0162043
0.0221504
0.0232088
0.0514781
0.024076
0.0242566
0.040931
0.043046
0.0306629
0.0223327
0.0244879
0.0403363
0.0474031
0.0258829
0.0499512
0.0243952
0.0248195
0.0206427
0.0870473
0.0764813
0.0255527
0.02741
0.0569131
0.0867171
0.0258461
0.0582304
0.0253297
0.0245236
0.0518948
0.0258096
0.0820437
0.0238788
0.0598799
0.0354956
0.0900004
0.0205729
0.0878508
0.092166
0.0239675
0.0967563
0.0282556
0.0254775
0.0413161
0.0683587
0.0273683
0.0327523
0.031935
0.032701
0.031868
0.0519758
0.00337849
0.0458925
0.084287
0.0814753
0.0668482
0.026086
0.0956498
0.00231848
0.0233712
0.0554042
0.0240703
0.0249687
0.0958841
0.0194233
0.0305856
0.0970335
0.0975055
0.0253594
0.0149937
0.0321358
0.0641027
0.0255649
0.0712688
0.0949152
0.0213719
0.0841235
0.0261721
0.0227863
0.0238337
0.0185119
0.0502194
0.086915
0.054434
0.030611
0.0975694
0.0249437
0.0242965
0.0234025
0.0835383
0.0353371
0.0239539
0.0396179
0.0951699
0.0308412
0.0658712
0.0254904
0.039081
0.0295374
0.0325422
0.0346613
0.0147692
0.0342136
0.0197438
0.0246438
0.0889882
0.0326775
0.0429561
0.0258432
0.0447463
0.0429406
0.0893278
0.0149134
0.0411223
0.0742462
0.0414309
0.025495
0.0378913
0.0198196
0.00226201
0.0421204
0.0384905
0.0430892
0.0315962
0.0862041
0.080217
0.023802
0.0310291
0.0938379
0.0900346
0.0650629
0.0319166
0.00250411
0.0333068
0.0307298
0.0436905
0.0261797
0.0249696
0.0304109
0.0428047
0.0598282
0.022419
0.0249943
0.0429677
0.0210904
0.0585742
0.0498884
0.0552739
0.00274603
0.077002
0.0254315
0.0933749
0.0934213
0.0668965
0.0140808
0.0482321
0.0541095
0.0440658
0.00386906
0.0202435
0.0260635
0.0799931
0.0880913
0.0652985
0.0914735
0.0189237
0.0224804
0.0317133
0.0310979
0.0315685
0.0288564
0.0245721
0.0678503
0.0738949
0.0883327
0.094026
0.077163
0.0662821
0.0967509
0.0226117
0.0483983
0.0923048
0.0357806
0.00301618
0.017724
0.0527036
0.0231619
0.0527025
0.0248884
0.0423458
0.056442
0.0201939
0.0422254
0.0426974
0.0258106
0.058114
0.025485
0.0831499
0.0923297
0.0273781
0.0857759
0.0873743
0.0512785
0.00239635
0.089557
0.0369789
0.0265019
0.094616
0.0191976
0.0774595
0.0157858
0.0505818
0.0161172
0.0318261
0.0457459
0.0287382
0.00351999
0.0857654
0.0183914
0.0413786
0.0308568
0.0880005
0.0668582
0.0362275
0.0861354
0.0406155
0.0613235
0.0247766
0.043425
0.090955
0.0125755
0.0414099
0.0213009
0.0244
0.0599938
0.0326351
0.0675692
0.0608066
0.0406784
0.0915132
0.023006
0.0332883
0.0427667
0.0255108
0.073336
0.0634048
0.00325932
0.0482869
0.0401523
0.0873301
0.0253786
0.0531079
0.0241356
0.0251037
0.045299
0.021344
0.0608146
0.0940551
0.0898961
0.0452878
0.0675148
0.0651348
0.0516986
0.0237484
0.0476221
0.0249998
0.0455676
0.0419899
0.0315384
0.0427006
0.0915982
0.02444
0.0834074
0.00436627
0.057163
0.0160686
0.00405833
0.0675138
0.0235065
0.0840968
0.0262659
0.0237616
0.0244874
0.0884881
0.0304018
0.0229272
0.0268931
0.0745522
0.0320239
0.0385857
0.0419022
0.0538874
0.0399266
0.0262928
0.0698692
0.0308696
0.0293131
0.0809542
0.0205105
0.0524728
0.0279897
0.00365632
0.0495094
0.021921
0.0287768
0.0791898
0.0932565
0.0322178
0.0251536
0.0840135
0.0909566
0.087065
0.0866896
0.083551
0.0787611
0.0220693
0.055851
0.0773206
0.0351431
0.0407463
0.0212405
0.027581
0.0353774
0.0249058
0.0541915
0.0830579
0.0153681
0.0189974
0.0227119
0.0235414
0.0344719
0.0403151
0.0262656
0.00238984
0.0776974
0.0404309
0.0251777
0.0899767
0.0728274
0.0413829
0.0303626
0.0557228
0.0321014
0.032895
0.030871
0.0404136
0.0325622
0.0279227
0.0456884
0.0328487
0.0887377
0.0429523
0.0488507
0.0766675
0.0307097
0.0477923
0.0376341
0.0394544
0.0299465
0.0325008
0.0604927
0.0340231
0.0344153
0.0356123
0.00247821
0.034663
0.0749787
0.0917344
0.005238
0.0334327
0.0892798
0.0805786
0.0205032
0.0846334
0.0238789
0.052812
0.0954688
0.0237222
0.0315483
0.088664
0.0248121
0.0307533
0.0247948
0.0191451
0.0740035
0.02389
0.0832154
0.0108028
0.0534531
0.024571
0.0328079
0.0261039
0.0348083
0.0214655
0.0725012
0.0868819
0.0795486
0.0654217
0.0440101
0.0329452
0.0883682
0.0339736
0.0886936
0.00842543
0.0447046
0.0432378
0.0234108
0.0232753
0.0780592
0.0685011
0.0299016
0.0247351
0.0304729
0.0403434
0.0235535
0.0354484
0.0453639
0.0601419
0.0404525
0.0367118
0.0320113
0.0240108
0.0803615
0.0361891
0.0364396
0.0464869
0.0450259
0.0504225
0.0377459
0.0299724
0.0295925
0.00484872
0.00231394
0.0617394
0.0428677
0.0706486
0.0237979
0.0264203
0.0449106
0.0194745
0.0296556
0.0847227
0.0811676
0.0207411
0.091722
0.0105826
0.0755407
0.0204751
0.0821078
0.0254469
0.0340735
0.0532165
0.0506079
0.0648242
0.00689781
0.0972939
0.0227029
0.0516245
0.0221412
0.080777
0.0625782
0.0535283
0.0238635
0.0332658
0.0725731
0.0315337
0.0405429
0.0418124
0.0746516
0.0242168
0.0554249
0.0195418
0.0817991
0.0212937
0.017962
0.0381279
0.0386518
0.0846123
0.0609186
0.0306812
0.0390181
0.0481026
0.0228265
0.0536045
0.0386612
0.0243301
0.0153604
0.0881911
0.0231709
0.0224291
0.00443389
0.00515872
0.0259492
0.0874721
0.0771409
0.0286437
0.0664224
0.0872732
0.0253718
0.0798852
0.078164
0.0844782
0.0416265
0.0848644
0.0229815
0.00471664
0.0231406
0.051267
0.0374582
0.022484
0.0867619
0.023429
0.044795
0.0802097
0.0343416
0.02425
0.0888453
0.0796349
0.0398937
0.00267791
0.0949911
0.0190462
0.0308769
0.0406386
0.033912
0.0288748
0.0203734
0.056715
0.00526128
0.0335792
0.0628463
0.0800644
0.0243595
0.0231514
0.0233084
0.0243584
0.0410679
0.0407016
0.0551607
0.0327236
0.0931038
0.0464852
0.0292911
0.0312477
0.0242636
0.0858953
0.0977963
0.0236974
0.0427193
0.079535
0.0473975
0.0611441
0.0932243
0.020917
0.0275469
0.0372877
0.0185406
0.0297326
0.056056
0.0841909
0.0233212
0.0234436
0.0196695
0.00530172
0.0627346
0.0235263
0.0170245
0.0712233
0.0578499
0.0178852
0.0234701
0.0765741
0.0907846
0.0817159
0.0424227
0.0793991
0.0518169
0.0882068
0.00559225
0.0221408
0.0929531
0.0230611
0.0131396
0.025705
0.0253969
0.0430579
0.0502513
0.0434092
0.0778333
0.0163201
0.0400154
0.0591718
0.06453
0.0353384
0.0874259
0.00244465
0.0717677
0.024107
0.00516677
0.0581928
0.0267465
0.0285495
0.0508723
0.0956282
0.0165752
0.0741046
0.0739109
0.0170239
0.0466496
0.0524664
0.0234011
0.0240668
0.0236624
0.0338557
0.0370039
0.0269343
0.00510612
0.0910768
0.0175942
0.0783482
0.00564294
0.0882302
0.0566826
0.00279193
0.0630957
0.0239676
0.0643103
0.0516362
0.0228217
0.0283978
0.0250866
0.0174968
0.0282625
0.0715205
0.0279769
0.00631452
0.019715
0.0346758
0.0242044
0.0251397
0.0229731
0.0799723
0.00269835
0.0297774
0.025084
0.0541651
0.030808
0.0356402
0.0697619
0.0922705
0.0647791
0.0235879
0.0233842
0.0499535
0.0235764
0.0361446
0.0252579
0.0556533
0.0745218
0.0120002
0.00589086
0.0265511
0.020971
0.0619475
0.0586975
0.0460015
0.0516882
0.0445833
0.0293507
0.0864456
0.0881073
0.0447187
0.00633681
0.0313598
0.0197995
0.0516412
0.0401037
0.0448034
0.0228055
0.0205792
0.0411602
0.0678338
0.0493684
0.0558672
0.033992
0.0348676
0.0232497
0.0855375
0.066802
0.00255792
0.0236192
0.0871487
0.0880237
0.0340549
0.0157679
0.0910734
0.0532682
0.0170195
0.0227014
0.0512854
0.0357673
0.0253878
0.0580554
0.0105202
0.07225
0.0173303
0.08993
0.0461178
0.0249685
0.0550129
0.0236313
0.0347761
0.0344394
0.0710645
0.0252066
0.0236146
0.00540737
0.0278979
0.023514
0.00439431
0.060843
0.0759994
0.0234754
0.0231511
0.0354504
0.00278105
0.0206445
0.0233775
0.0214474
0.0953433
0.0233162
0.0250096
0.0371236
0.0299576
0.00544432
0.0267803
0.0025466
0.0212976
0.0158193
0.0575715
0.05259
0.0628344
0.0169087
0.0239698
0.0183344
0.0185598
0.0242801
0.00332838
0.0308422
0.0273688
0.0778278
0.031212
0.0358265
0.0940482
0.0175822
0.0238948
0.0240872
0.0281448
0.0375732
0.0432289
0.0175828
0.0597122
0.0479965
0.0853197
0.0822644
0.0101043
0.0322658
0.0821314
0.0246301
0.0228453
0.0103896
0.0697861
0.0301659
0.0217937
0.0425809
0.0502652
0.0228092
0.0232428
0.0571941
0.0380029
0.0226256
0.0237037
0.0218816
0.0406739
0.0709799
0.0226037
0.0744877
0.00470758
0.0198917
0.00584591
0.0349
0.0938084
0.0719552
0.0796893
0.0908124
0.0849501
0.0540996
0.0466356
0.0403674
0.0230607
0.0256983
0.0363158
0.0429829
0.0488818
0.00510165
0.0238044
0.019091
0.0223897
0.0217833
0.0223542
0.0229005
0.0552494
0.0325416
0.0191966
0.0508716
0.0201151
0.0229031
0.0270199
0.0217303
0.085952
0.0869056
0.0213845
0.0402143
0.0326078
0.0584758
0.0364374
0.0186121
0.0197246
0.0100583
0.0224517
0.0517748
0.0881474
0.0477094
0.0297736
0.020685
0.039436
0.0335207
0.0938613
0.0383252
0.0243482
0.0431186
0.0235307
0.0848953
0.0333432
0.0537259
0.0250124
0.0282074
0.0552376
0.041495
0.0694232
0.0573081
0.0309336
0.0211009
0.0234281
0.0289601
0.0786803
0.0167129
0.0595921
0.0608005
0.0224408
0.075344
0.0454534
0.0620279
0.0530171
0.0707233
0.0160171
0.0265223
0.0670717
0.0865407
0.027672
0.0150443
0.0548645
0.0225377
0.0380937
0.0394749
0.0111537
0.087916
0.0135452
0.0327436
0.038541
0.0765364
0.0719634
0.0206357
0.0325515
0.0451048
0.0337404
0.0235572
0.023698
0.0148091
0.0298484
0.0264805
0.0237685
0.090537
0.0539273
0.0751878
0.078082
0.0191553
0.0222981
0.0574569
0.0596653
0.0191353
0.0439475
0.0439882
0.0239386
0.0701893
0.0686087
0.0833919
0.0139703
0.0205501
0.0218817
0.0118489
0.0468156
0.0456852
0.0201614
0.0318254
0.0718787
0.0228649
0.0163888
0.0310178
0.0769186
0.0184328
0.0372653
0.0320399
0.0447525
0.029278
0.0828123
0.0817298
0.0813733
0.050314
0.0238621
0.0543186
0.023667
0.0697899
0.092127
0.0445293
0.0413236
0.0101197
0.0774988
0.015219
0.0453979
0.0374552
0.0682965
0.0230208
0.0490425
0.0149609
0.0241785
0.0222843
0.0925452
0.0538211
0.0393522
0.0873693
0.0357942
0.0574573
0.0189029
0.0570877
0.0239024
0.0412075
0.00237203
0.0606969
0.0203556
0.0237419
0.0766139
0.01492
0.0675615
0.0177207
0.0619008
0.0254945
0.0502669
0.0203955
0.0694151
0.0478347
0.0892596
0.0756755
0.0265557
0.0167605
0.0148926
0.041784
0.0655755
0.0535718
0.0605804
0.0457952
0.0612307
0.072297
0.0231806
0.078187
0.0738251
0.0340738
0.0756196
0.0700886
0.0211938
0.0346567
0.0250267
0.0805268
0.0250302
0.0241812
0.0237246
0.0905605
0.0908718
0.0430777
0.0489677
0.0546566
0.0212885
0.0458733
0.0244453
0.0349937
0.0244234
0.0527538
0.0513277
0.0456059
0.0209415
0.0826825
0.0046618
0.0196139
0.0331028
0.0706682
0.0476131
0.0706604
0.0211617
0.0235226
0.0248417
0.0885473
0.0256978
0.0226281
0.059895
0.0796732
0.0190967
0.0362556
0.059795
0.00723408
0.066529
0.0901033
0.00226377
0.0207015
0.0516512
0.0756084
0.0600484
0.0268648
0.0361772
0.0468422
0.0236515
0.0239924
0.0209882
0.0232921
0.0637771
0.0758447
0.0288095
0.0875825
0.070817
0.0247671
0.021709
0.0300658
0.0728518
0.058933
0.0495854
0.0396195
0.0850852
0.0503905
0.0344023
0.0391775
0.036736
0.0839232
0.0390113
0.0525193
0.0423142
0.0355023
0.0296874
0.0320031
0.0175853
0.0159483
0.0453875
0.0583339
0.031118
0.0481278
0.0435083
0.023977
0.0759779
0.034474
0.0451676
0.0212542
0.0904244
0.0293353
0.0205473
0.0291058
0.0196728
0.0280799
0.0260983
0.0240008
0.0232287
0.0300457
0.0491964
0.0750872
0.0306481
0.0844478
0.0288014
0.0367568
0.0572414
0.0562276
0.0304291
0.0871077
0.0348337
0.0537901
0.0287792
0.0630818
0.0260697
0.00244234
0.0920656
0.0287302
0.0527784
0.0495986
0.034968
0.0235131
0.0236693
0.0321721
0.0211173
0.0246952
0.0298929
0.0256838
0.0474167
0.0241872
0.0232443
0.0266667
0.0139536
0.0685522
0.00447285
0.0551896
0.0487017
0.0899345
0.0254234
0.0241197
0.0292007
0.0249752
0.0249537
0.0603361
0.0272507
0.0330953
0.0648593
0.0334951
0.0235669
0.00217438
0.0750739
0.0249249
0.00440161
0.0177582
0.0609195
0.0179453
0.0190039
0.0275182
0.0711405
0.024674
0.0238396
0.0198775
0.0357486
0.0174138
0.0879723
0.0393938
0.0267063
0.0339215
0.071987
0.0197768
0.0238488
0.0753321
0.0850956
0.055685
0.0151939
0.0341466
0.0346383
0.0489987
0.0368764
0.0826006
0.0765638
0.0399176
0.0342131
0.0169137
0.0204398
0.0382229
0.0204166
0.0843209
0.0112097
0.0222371
0.0334634
0.069839
0.0360371
0.076327
0.0519289
0.0590564
0.0346708
0.0186499
0.0608303
0.0815456
0.0239372
0.0178525
0.0290415
0.018764
0.0247134
0.0623119
0.0401003
0.0441977
0.0773982
0.0782069
0.039603
0.0775088
0.0185731
0.0205218
0.0251224
0.0667095
0.0140923
0.0129895
0.0158055
0.0427788
0.0320845
0.0168292
0.0703519
0.0794673
0.0700406
0.0220287
0.0505448
0.0871957
0.0364539
0.026066
0.0294952
0.0246127
0.0777017
0.0180388
0.0400207
0.0296288
0.0453171
0.0233438
0.0288256
0.0402266
0.00629218
0.00557381
0.02974
0.0442941
0.0159099
0.0243778
0.046583
0.0438188
0.0232459
0.0739924
0.0493565
0.0240371
0.0260617
0.0276849
0.0388038
0.0184696
0.0233977
0.0716682
0.04502
0.0226139
0.0737366
0.0740413
0.0583005
0.0377738
0.0177856
0.0221111
0.0360564
0.074529
0.042664
0.0985386
0.0847321
0.0821031
0.0233394
0.0235035
0.0300231
0.0213279
0.0217974
0.0183904
0.0697944
0.0241547
0.0247013
0.0240559
0.0158882
0.0631818
0.0124678
0.0360071
0.0148911
0.0138964
0.0147833
0.0103169
0.0628812
0.0353568
0.0243087
0.075224
0.0319189
0.0290826
0.0734255
0.03126
0.0238676
0.0735748
0.0206752
0.0347084
0.0215335
0.0276506
0.0307203
0.0408937
0.0801752
0.0236522
0.0672736
0.0379615
0.0467071
0.0287449
0.0823433
0.0849662
0.0242552
0.0198794
0.0298179
0.0104934
0.035977
0.067484
0.0845114
0.0483439
0.0149645
0.0847552
0.0178389
0.0296401
0.0551839
0.0521596
0.0865999
0.0753374
0.033691
0.0801357
0.0138068
0.0253463
0.0197316
0.0422894
0.019334
0.0801852
0.0174186
0.0227824
0.0206961
0.0122946
0.0130439
0.0202874
0.0382801
0.0572567
0.0402407
0.0647269
0.0547233
0.0401206
0.0191533
0.0209514
0.0371056
0.0295239
0.0239057
0.0236024
0.0244629
0.0127352
0.0235031
0.0187117
0.0231693
0.031339
0.0235399
0.016185
0.0414743
0.0365671
0.0766319
0.0865877
0.0383453
0.0239501
0.0353729
0.0352699
0.0688168
0.0289038
0.0285639
0.0317039
0.0265791
0.0797432
0.0295585
0.0236332
0.0235196
0.0204551
0.0298153
0.03593
0.0744506
0.0773773
0.0139267
0.030454
0.0736262
0.0360357
0.0711564
0.0795337
0.038248
0.0731277
0.0725676
0.0668854
0.04183
0.0190466
0.012322
0.0128259
0.0407985
0.0678909
0.0236366
0.0535421
0.0725037
0.0667084
0.0124557
0.0243141
0.0332303
0.0167791
0.023639
0.0707082
0.025954
0.0273953
0.0705356
0.0129603
0.0808916
0.0740782
0.0292256
0.0165948
0.0295776
0.0570565
0.0720144
0.0119149
0.0116823
0.0141689
0.0884264
0.121933
0.136231
0.141001
0.140123
0.135354
0.12808
0.119316
0.1098
0.1001
0.0905867
0.0815169
0.0730535
0.0652825
0.0582326
0.0518934
0.0462292
0.04119
0.0367187
0.0327609
0.0877233
0.120978
0.135298
0.140155
0.139413
0.13479
0.127661
0.11903
0.109631
0.100017
0.0905702
0.0815489
0.0731179
0.0653663
0.0583263
0.0519906
0.046326
0.0412845
0.0368104
0.0328495
0.0869885
0.120007
0.134331
0.139284
0.138677
0.134205
0.127227
0.118732
0.109453
0.0999304
0.0905546
0.0815844
0.0731878
0.0654569
0.0584278
0.0520961
0.0464314
0.0413876
0.0369096
0.0329441
0.0862254
0.119012
0.133334
0.138387
0.137916
0.1336