/*--------------------------------*- C++ -*----------------------------------*\
  =========                 |
  \\      /  F ield         | OpenFOAM: The Open Source CFD Toolbox
   \\    /   O peration     | Website:  https://openfoam.org
    \\  /    A nd           | Version:  10
     \\/     M anipulation  |
\*---------------------------------------------------------------------------*/
FoamFile
{
    format      ascii;
    class       volScalarField;
    location    "800";
    object      nut;
}
// * * * * * * * * * * * * * * * * * * * * * * * * * * * * * * * * * * * * * //

dimensions      [0 2 -1 0 0 0 0];

internalField   nonuniform List<scalar> 
23845
(
0.0136046
0.0138852
0.00774775
0.014125
0.018188
0.0221449
0.00799465
0.00995686
0.0196071
0.0141433
0.0221186
0.0229567
0.0190929
0.0207126
0.00612422
0.0158792
0.0211356
0.0233274
0.0178447
0.0224665
0.0119943
0.0229136
0.0129103
0.0193611
0.01655
0.0180059
0.00984959
0.022073
0.00348963
0.0221449
0.0148493
0.00127446
0.00497913
0.0227431
0.0229826
0.0230283
0.00110401
0.0229603
0.0226584
0.0200067
0.0174193
0.0223269
0.0185563
0.0230256
0.0178495
0.020021
0.0193693
0.0162935
0.00223039
0.00195535
0.00568393
0.010043
0.00127714
0.0213456
0.00123334
0.0200301
0.0145255
0.0110087
0.0123606
0.0139104
0.00629946
0.0227736
0.0166112
0.00432026
0.0188301
0.0196198
0.0096967
0.0179767
0.0178082
0.0177049
0.00830543
0.0081833
0.0180926
0.00664971
0.0182975
0.00636061
0.0229048
0.0227012
0.0131375
0.0206985
0.011025
0.00744908
0.0141939
0.0113595
0.00648019
0.0229828
0.0085677
0.00117992
0.0188931
0.0194935
0.00467269
0.0172544
0.00376407
0.0228445
0.0106081
0.00548611
0.0204779
0.0161242
0.0183607
0.0194132
0.0199941
0.00929715
0.0169506
0.000833286
0.00296419
0.0119955
0.021937
0.0180707
0.0109172
0.0226911
0.0222198
0.0229098
0.00645843
0.0152218
0.0229942
0.0131249
0.0183208
0.0150494
0.00367906
0.00716657
0.0227755
0.00254259
0.0178453
0.00847008
0.0090319
0.0180734
0.0069368
0.00195259
0.00677676
0.0179194
0.00479364
0.0195259
0.0222323
0.0214184
0.0199953
0.0154658
0.000730954
0.0229509
0.0109623
0.0225991
0.00229519
0.0224823
0.0227981
0.0232143
0.0168568
0.0229332
0.0140142
0.00703335
0.00572518
0.0186112
0.00548262
0.0187097
0.0103421
0.019933
0.00632914
0.0200698
0.0181596
0.022912
0.00439712
0.00515519
0.0176129
0.00623488
0.0100716
0.0190613
0.0176961
0.0199735
0.0219769
0.0029647
0.022211
0.0230202
0.0217919
0.0135403
0.0192149
0.00954366
0.0189837
0.0122264
0.017009
0.0199268
0.0181157
0.0228767
0.0198344
0.0202193
0.00694893
0.0227662
0.0163046
0.0189743
0.0224205
0.0107998
0.00290896
0.022071
0.00383046
0.0207355
0.0206019
0.021667
0.0171721
0.0202014
0.0019672
0.00294297
0.00075412
0.0214105
0.0213746
0.0203808
0.0064101
0.0209712
0.0109045
0.0102218
0.0074198
0.0222704
0.0116169
0.0231053
0.0218284
0.00283901
0.0164409
0.0218888
0.00331623
0.0012201
0.0220827
0.0226688
0.000553914
0.00547416
0.0180707
0.0064985
0.00184195
0.0186885
0.0231782
0.00565579
0.000748208
0.0207514
0.0222285
0.0174794
0.0226825
0.00290618
0.0228997
0.0178697
0.0186724
0.00505237
0.0186563
0.0148255
0.0189118
0.0124153
0.00159505
0.0144543
0.0119705
0.0194389
0.00309092
0.0165112
0.0217751
0.0179936
0.0113594
0.00641584
0.0205404
0.0229628
0.00569917
0.0182564
0.00690789
0.00480072
0.00716675
0.00720665
0.0228659
0.0195637
0.000842085
0.0229656
0.00752785
0.0218332
0.0214392
0.0194215
0.0129059
0.00708854
0.0156727
0.0145136
0.0227563
0.0132557
0.00511857
0.0208888
0.0230871
0.0204206
0.00694276
0.0208973
0.00192601
0.013357
0.0117398
0.0221531
0.00734053
0.0177355
0.0229871
0.0058272
0.0105475
0.0199948
0.0103987
0.00664507
0.0123406
0.00373707
0.00486692
0.00687691
0.0113972
0.0229627
0.00510334
0.0214356
0.0229844
0.00400983
0.00412689
0.00584472
0.00492637
0.0148425
0.0213376
0.0151116
0.00390635
0.00530692
0.0198746
0.00185454
0.00484184
0.0115405
0.0187342
0.0218341
0.0109474
0.00219351
0.00520692
0.0219627
0.00451302
0.0180648
0.00275043
0.00292197
0.00464226
0.021923
0.0065235
0.0223794
0.0139877
0.0174431
0.00727757
0.0235372
0.00817513
0.0188991
0.0054301
0.0230116
0.006604
0.0144016
0.0127171
0.0235593
0.0227003
0.0133392
0.012758
0.00512563
0.0226057
0.0178716
0.0178018
0.0014363
0.0230149
0.00614256
0.0136089
0.00552745
0.0134958
0.00474153
0.00183833
0.00664927
0.00128401
0.0206497
0.0232474
0.0185449
0.00679764
0.0116898
0.00748084
0.0187319
0.0142204
0.0179831
0.00325031
0.0218099
0.00706048
0.0226954
0.00382132
0.0180429
0.0228594
0.00409571
0.00306324
0.0229648
0.0228525
0.00532338
0.0103553
0.0137868
0.0227004
0.0121699
0.00689055
0.0229502
0.0128027
0.0178538
0.017891
0.02283
0.0225184
0.0129379
0.0224526
0.0115927
0.0091343
0.0230549
0.00358919
0.00284088
0.00435809
0.00426903
0.0223499
0.0178505
0.0176769
0.0230159
0.0120031
0.0159478
0.00911138
0.0118429
0.013536
0.00676689
0.022365
0.00337098
0.00309876
0.00791855
0.00594176
0.0179003
0.00765788
0.0060557
0.0171892
0.0103211
0.0160442
0.0233701
0.0225635
0.0135502
0.00365671
0.0226713
0.0198786
0.0136784
0.00821364
0.0126546
0.00348112
0.0147489
0.00951504
0.00847527
0.0204576
0.0230507
0.00474829
0.0238701
0.0209786
0.0181172
0.0229782
0.0190046
0.00457171
0.0107746
0.00642655
0.00318649
0.00280562
0.00647594
0.0152764
0.00467325
0.0221401
0.0174055
0.0226254
0.0125412
0.0132542
0.0188954
0.00299706
0.0230034
0.0179737
0.00529224
0.0146458
0.0205988
0.00826003
0.0209414
0.0105635
0.0145218
0.000744118
0.0160568
0.0225924
0.0225426
0.0218574
0.00316194
0.0178872
0.00532005
0.022044
0.0221206
0.0158834
0.00757019
0.00433159
0.0194267
0.0186979
0.00332808
0.0215963
0.018631
0.0185985
0.0172678
0.0153321
0.0231945
0.0229753
0.00741709
0.0228412
0.0229257
0.00859763
0.00689603
0.0181666
0.0044925
0.0058559
0.017965
0.0104335
0.019235
0.0181533
0.00976103
0.0185503
0.0229531
0.00924741
0.00250654
0.00558599
0.0191873
0.0119449
0.01266
0.0223806
0.0182074
0.0224789
0.0061949
0.015337
0.00470135
0.00114555
0.0156367
0.0211088
0.0178589
0.0167494
0.00495341
0.00553302
0.022323
0.00080038
0.0207905
0.0232824
0.00424701
0.0177421
0.00786465
0.00676235
0.00489582
0.0120353
0.00404858
0.00525469
0.00392604
0.021351
0.0138605
0.0188852
0.0181931
0.0214344
0.00588283
0.020542
0.0132394
0.00691552
0.0206576
0.0136273
0.0132769
0.0171682
0.0132077
0.0233029
0.0188233
0.0218732
0.0193858
0.0198893
0.022985
0.0084449
0.0199304
0.01078
0.0111636
0.022912
0.00508288
0.0230216
0.0224541
0.0112323
0.0139125
0.0149972
0.0224074
0.0229108
0.00274707
0.00338868
0.0181614
0.00427524
0.0182503
0.0177869
0.00791202
0.0189434
0.0220491
0.0153938
0.020323
0.00799089
0.004897
0.00794807
0.0202642
0.01771
0.0229097
0.0170906
0.00741077
0.00454742
0.0233981
0.0180692
0.0181296
0.00804079
0.0182659
0.0139614
0.00563964
0.012956
0.0231911
0.00675182
0.0233328
0.0177427
0.0208325
0.0233555
0.0228848
0.00938869
0.0213969
0.0215106
0.00680958
0.0116765
0.0181661
0.00748955
0.0208459
0.00751982
0.0200003
0.0187757
0.0174487
0.0139698
0.0206394
0.00409854
0.014624
0.0224515
0.0183134
0.0220918
0.0210798
0.0212049
0.00637888
0.0201996
0.0207957
0.0165936
0.0238969
0.0174941
0.0235908
0.0176987
0.0156442
0.0190359
0.0196729
0.0175207
0.0222516
0.0229658
0.00618481
0.015779
0.0152241
0.0177051
0.023112
0.016667
0.0227056
0.0225655
0.0182312
0.0138949
0.0203816
0.0122481
0.0182278
0.0184093
0.00636235
0.0230795
0.0230005
0.0227027
0.0126108
0.00536043
0.00433601
0.00439065
0.016817
0.00796381
0.0221727
0.0220424
0.0186432
0.0220195
0.0171798
0.0210184
0.0176836
0.0177153
0.0201692
0.0162098
0.0201813
0.0159734
0.0239011
0.0210003
0.0239593
0.0239677
0.023421
0.0239815
0.0229102
0.0206585
0.0211645
0.0209184
0.0239498
0.0221161
0.0238752
0.0212185
0.0198962
0.0200975
0.0238679
0.0217523
0.0186626
0.0237194
0.0217542
0.0240316
0.0240492
0.0239423
0.0238439
0.0236531
0.0240285
0.0232617
0.0240188
0.0204381
0.0239564
0.0203546
0.0239362
0.0227709
0.0220242
0.0238887
0.02363
0.023736
0.0179846
0.0212034
0.0161596
0.018889
0.0212525
0.0211859
0.0236919
0.0220895
0.0221749
0.0236358
0.0238221
0.0237904
0.0238536
0.0235588
0.0213103
0.0229527
0.0169676
0.0176599
0.0224822
0.0190379
0.0237069
0.0235231
0.023371
0.0227259
0.0213195
0.0231489
0.0228007
0.0219717
0.0234796
0.020288
0.0215135
0.0178659
0.0234206
0.0214094
0.00877623
0.0182422
0.0234727
0.0229422
0.02342
0.021855
0.0223994
0.00758898
0.0219832
0.0178257
0.0200959
0.0211705
0.00771185
0.019743
0.0199543
0.0237301
0.0238921
0.023189
0.0223286
0.0240521
0.0232208
0.0231512
0.0240585
0.0185135
0.0239004
0.0153156
0.0237871
0.0233744
0.0238034
0.0238515
0.0225234
0.0133914
0.0200873
0.0221532
0.0192715
0.0199957
0.0222009
0.0237239
0.0239136
0.00490169
0.0203954
0.0213187
0.0233405
0.0191306
0.0233461
0.0233139
0.0233407
0.0236124
0.0209101
0.0220394
0.0223224
0.0234566
0.0212681
0.0169916
0.023539
0.0219553
0.0234349
0.0234227
0.0205466
0.0227509
0.021255
0.0213754
0.0211415
0.0221498
0.0218205
0.0213972
0.0219707
0.0164984
0.0184312
0.0235804
0.0197073
0.0232933
0.0238031
0.00437957
0.0214893
0.0175271
0.0170286
0.0177934
0.0177488
0.0165617
0.0176971
0.0176749
0.0178969
0.017521
0.0178048
0.0176993
0.0178186
0.0177667
0.0178853
0.0176271
0.0174667
0.017712
0.0177162
0.0161757
0.023336
0.0234644
0.00889517
0.0234673
0.0177575
0.01924
0.0226894
0.0185494
0.0239769
0.021366
0.0240568
0.0221439
0.0174217
0.0175133
0.017244
0.0165017
0.0239487
0.0220211
0.0223903
0.0192908
0.0174461
0.0229692
0.00700761
0.0229674
0.0172561
0.0220776
0.0224823
0.0233362
0.02
0.0167433
0.0172402
0.0150464
0.0157326
0.0171756
0.014663
0.0176691
0.0175454
0.0177014
0.0176305
0.0176549
0.0176807
0.0187822
0.0235601
0.0233819
0.0179842
0.022207
0.0187922
0.0171186
0.0237465
0.0171184
0.0148563
0.0172192
0.0176259
0.0166592
0.0177074
0.0155297
0.0175253
0.0176758
0.014426
0.0175343
0.0176818
0.0238041
0.0213504
0.0228839
0.0166223
0.0237215
0.0219605
0.0239114
0.020983
0.0237737
0.0233603
0.0215837
0.00359362
0.0230118
0.0239405
0.0237952
0.023869
0.0211475
0.023763
0.0229781
0.0169914
0.0236662
0.023365
0.00542202
0.00256703
0.0236097
0.0235214
0.021007
0.016579
0.0217363
0.00597283
0.0232048
0.0178191
0.0181856
0.0176562
0.0221842
0.0234307
0.0197666
0.0202298
0.0231987
0.0128246
0.0175926
0.0228243
0.0231279
0.017735
0.023727
0.0234441
0.0236153
0.0198926
0.0176666
0.0237116
0.0237812
0.0238416
0.0235612
0.0235586
0.0217703
0.023388
0.0198754
0.0213892
0.0216888
0.0235227
0.0170671
0.023276
0.0236675
0.0211716
0.02353
0.0230279
0.0234988
0.018787
0.0233697
0.0232921
0.0229954
0.0196359
0.0220661
0.0220538
0.0130887
0.0232887
0.020134
0.0233285
0.0234035
0.0209743
0.0182952
0.0237174
0.0212691
0.0155171
0.0201779
0.023302
0.0234557
0.0232619
0.0232126
0.0158825
0.0231784
0.0230658
0.0226365
0.0160922
0.0187673
0.0231715
0.02299
0.0222326
0.0188073
0.0216485
0.0205238
0.0191604
0.0220041
0.0224576
0.0232788
0.0196666
0.0186357
0.0202717
0.00173347
0.0205632
0.00479942
0.0196402
0.0217482
0.00197638
0.023193
0.0178809
0.0228821
0.0176425
0.0226871
0.0233945
0.022122
0.0213683
0.0227235
0.00583058
0.0233449
0.0233933
0.01863
0.0194375
0.0184839
0.0160151
0.0233545
0.0232553
0.0220477
0.0233612
0.0214416
0.0179276
0.0215606
0.019966
0.0222653
0.0162616
0.015288
0.0158968
0.014987
0.0146332
0.0236174
0.0234282
0.0219101
0.0191988
0.019286
0.0238143
0.0190181
0.0238783
0.0222243
0.024023
0.0235555
0.0240388
0.0240149
0.0237011
0.0239057
0.0239165
0.0237593
0.0235164
0.022344
0.0235456
0.0138561
0.0230046
0.0232443
0.0142829
0.023154
0.0188376
0.0230253
0.0229408
0.0237317
0.0235234
0.0221597
0.0233007
0.0191874
0.0205783
0.0210257
0.018285
0.0231085
0.0142049
0.0221785
0.0179937
0.0240411
0.0225158
0.0196519
0.00443341
0.00851458
0.0207918
0.0189062
0.0185623
0.0234908
0.0227175
0.0232325
0.0237253
0.0198213
0.0238493
0.0239786
0.0238714
0.0237933
0.00266047
0.0238568
0.0169648
0.0232594
0.0237546
0.0179418
0.0185883
0.0209987
0.00440082
0.0235398
0.0178343
0.0182806
0.0235117
0.0227897
0.0234145
0.023163
0.0208518
0.0224599
0.0234757
0.0234158
0.0128397
0.0231891
0.0232199
0.0229093
0.0143008
0.019923
0.0221287
0.0221653
0.018057
0.0184317
0.0233344
0.0197068
0.0182183
0.0093324
0.0180636
0.0231814
0.0186239
0.0227854
0.0222789
0.0232599
0.0235646
0.0215804
0.0233333
0.0231942
0.0229631
0.0226577
0.0224454
0.0227236
0.0215642
0.0232006
0.0237086
0.022013
0.0126284
0.0106891
0.0223491
0.0218072
0.0214894
0.0199143
0.0209958
0.0176344
0.0221839
0.0233739
0.0142955
0.0228934
0.0223267
0.0232129
0.0204072
0.022282
0.0179914
0.0214065
0.0225134
0.0187666
0.0218505
0.0193459
0.0223755
0.0221436
0.020237
0.0209532
0.0201171
0.0200471
0.0222404
0.0231138
0.0220764
0.0239592
0.0176867
0.0237479
0.0180869
0.017603
0.0163021
0.0178832
0.017815
0.0157598
0.0178241
0.0175945
0.0151231
0.0178881
0.0176896
0.0144278
0.0177265
0.0177953
0.0148153
0.0211032
0.0185629
0.0197652
0.0205717
0.0151033
0.0224693
0.0230981
0.0200597
0.0173266
0.0197438
0.021068
0.0152553
0.0218739
0.0230905
0.0157371
0.0236351
0.0221113
0.0238248
0.0185029
0.00241748
0.0219818
0.0232521
0.0231273
0.0229186
0.0231426
0.023433
0.023413
0.00568031
0.0238328
0.0233971
0.0230399
0.0199695
0.0235264
0.0232079
0.0125504
0.0202023
0.0198541
0.0175311
0.0190386
0.0232887
0.0231158
0.0202357
0.0050089
0.0231674
0.0157609
0.022108
0.0227213
0.0102559
0.0137222
0.0215942
0.02116
0.0199906
0.0184876
0.0212119
0.0212331
0.0212316
0.013054
0.022438
0.0206615
0.0190966
0.0188491
0.018183
0.0197341
0.0235496
0.022899
0.003809
0.0201263
0.0201515
0.0171161
0.0229755
0.000923053
0.0205553
0.00462454
0.0231024
0.0177678
0.0210819
0.0214053
0.022722
0.021026
0.0218295
0.0210011
0.0214376
0.0186095
0.0180873
0.0209031
0.0230628
0.0184748
0.0184194
0.021889
0.0213203
0.0219541
0.0209749
0.0185318
0.0219462
0.0238107
0.0198267
0.0210002
0.0151503
0.0225369
0.0183395
0.021093
0.0240577
0.0230103
0.0198702
0.00656824
0.0174971
0.0172748
0.0215722
0.0193389
0.0219025
0.0207008
0.0173465
0.0208127
0.0126692
0.00597049
0.0186898
0.0216945
0.0220575
0.00523873
0.0211764
0.0208775
0.020582
0.0185047
0.0151692
0.0228856
0.0218156
0.00524731
0.0115949
0.0212012
0.0185218
0.0173736
0.0204
0.00512972
0.0227042
0.0136295
0.0226317
0.0154048
0.0187619
0.0181306
0.0114921
0.0229256
0.00591567
0.0145012
0.0201425
0.00807951
0.0202086
0.015597
0.0141023
0.0124965
0.0217419
0.0197209
0.0120054
0.0230512
0.0168622
0.0217769
0.0233615
0.0223522
0.0202089
0.0168247
0.0230772
0.0193718
0.0209549
0.0195311
0.0222789
0.0232947
0.0201175
0.0231941
0.0217226
0.0155125
0.00980165
0.0184215
0.0230547
0.0220392
0.0223243
0.0213911
0.0222575
0.0226996
0.00719311
0.0186323
0.0168657
0.0010127
0.0209293
0.021161
0.0196968
0.020735
0.0171335
0.015183
0.0232088
0.0237006
0.0238803
0.0208208
0.0225517
0.0211972
0.0178109
0.0230667
0.0226719
0.0151395
0.00461358
0.0197422
0.0193881
0.020415
0.0112004
0.0220566
0.0206549
0.0224974
0.0227691
0.0230905
0.0218723
0.0215393
0.0204687
0.0226103
0.0229418
0.0227144
0.0083231
0.00740232
0.0232766
0.0217273
0.0202621
0.0222519
0.0194627
0.0231522
0.0218483
0.019788
0.0223073
0.00237381
0.0192584
0.00705005
0.0228017
0.0231084
0.0105063
0.0212506
0.0210602
0.0221551
0.0200797
0.0199506
0.0185125
0.0208074
0.0170175
0.0228767
0.0226706
0.02325
0.021302
0.0125412
0.0224735
0.0196998
0.0234154
0.017036
0.00814552
0.0222876
0.0196621
0.0139095
0.0231153
0.0227977
0.0222643
0.0178084
0.00568026
0.00382436
0.0235821
0.0229294
0.0200667
0.0210049
0.015993
0.0192852
0.0230224
0.0214423
0.0170847
0.0199752
0.0136438
0.0222999
0.0209136
0.0198511
0.01328
0.0193261
0.0206753
0.0204029
0.00713389
0.0205281
0.0201228
0.0152564
0.0229594
0.0186091
0.0199277
0.0164312
0.00502955
0.0181072
0.0207466
0.0214933
0.0044069
0.019924
0.0175612
0.0192075
0.0111807
0.0220045
0.0181088
0.0202484
0.0110933
0.0156836
0.0230994
0.0200135
0.0230229
0.0228087
0.0185761
0.00905067
0.0222866
0.0230883
0.0230326
0.014051
0.0211604
0.0181832
0.0185622
0.023077
0.0228774
0.00734661
0.0201562
0.0217801
0.0229986
0.0184906
0.0104177
0.00510981
0.00270611
0.00704015
0.0115476
0.0204001
0.0182593
0.0227746
0.0210599
0.0229712
0.0180101
0.0231008
0.00694123
0.00394655
0.0229099
0.0230737
0.0154065
2.07145e-05
0.015222
0.00826943
0.0216895
0.0131898
0.0230687
0.0194178
1.6972e-05
0.022845
0.0143735
0.0223779
0.0225524
0.0156687
0.00323572
0.00798647
0.0137969
0.0152231
0.0179997
0.0018335
0.0211608
0.0137464
0.0227943
0.0113985
0.0194436
0.0188761
0.0188216
0.022428
0.0193879
0.0222155
0.0027227
0.0150501
0.00649742
0.0076027
0.0229071
0.0144688
0.0222463
0.0215887
0.0229597
0.0191795
0.00991413
0.0221738
0.0199755
0.0130569
0.00575759
0.0233305
0.0214847
0.0122517
0.0213617
0.0232684
0.020077
0.0178361
0.0202364
0.0195523
0.0230239
0.00624101
0.022634
0.022559
0.0230363
0.0160566
0.0135244
0.020666
0.0181346
0.0127606
0.0157594
0.0160361
0.0212453
0.0038904
0.0175983
1.66448e-05
0.0123138
0.0114501
0.0222112
0.0231525
0.010925
0.011798
0.0202355
0.0224512
0.0144618
0.0172926
0.017679
0.0170565
1.79333e-05
0.0227168
0.00718108
0.0225842
0.00488433
0.0230215
0.022423
0.0232877
0.0227509
0.00404405
0.0222909
0.013862
0.00277634
0.0233439
0.0174559
0.0138857
2.20297e-05
0.0199547
0.0219873
0.0202735
0.0193553
0.0116398
0.0177767
0.0132673
0.0139424
0.0141318
3.23207e-05
0.0192697
0.0220565
0.0179762
0.00643778
0.0231355
0.012603
0.0192089
0.0189072
0.0184352
0.0231879
0.00676896
0.0208181
0.0223997
0.0169353
0.0180977
0.0104019
0.0132519
0.00535323
0.00788967
0.0158449
0.00218581
0.0149199
0.0208188
0.017655
2.45424e-05
0.0180922
0.0129298
0.0228403
0.00412796
0.00504486
0.0235215
0.0232908
0.0177686
0.0221319
0.0231103
0.0221711
0.0237515
0.0222989
0.0121572
0.0188611
0.0191102
0.0217141
0.0216568
0.0146979
1.55986e-05
0.00489631
0.0111835
0.00564405
0.0125804
0.00305911
0.0224967
0.018039
0.00378359
0.0177043
0.00629709
0.0154457
0.0173918
2.86797e-05
0.0221166
0.0190426
0.0131532
0.0230102
0.00958477
0.0130763
0.0167503
0.00685085
0.0228014
0.0125567
0.0175522
0.0231591
0.0126128
0.000810115
0.0186267
0.0182133
0.0179701
0.0221575
0.0227106
0.00513
0.0232363
0.0184945
0.0119645
0.0229322
0.00924582
0.01649
0.022166
0.017716
0.0057161
2.6635e-05
0.00910837
0.0104344
0.0115147
0.0216377
0.0157674
0.0226736
0.0225023
0.0144995
0.0202291
0.00695788
0.0127026
0.0115363
0.0114532
0.0222849
0.0131152
0.0229001
0.0189251
0.0227631
0.0189185
0.0137305
0.0230443
0.0202092
0.0180919
0.00603794
0.0227966
0.00758745
3.78694e-05
0.0234375
0.00199085
3.46658e-05
0.0122658
0.0229884
0.00450551
0.0181697
0.0222014
0.0229705
0.00528299
0.0227682
0.0205123
0.0217142
0.0141387
0.0210972
0.0119042
0.0217592
0.0233742
0.0170104
0.0219429
0.0167042
0.0203014
0.0178805
0.0190857
0.0195599
0.0234673
0.0191387
2.92004e-05
0.0165189
0.020057
0.00340961
0.0167675
0.0121627
0.0221653
0.0219302
0.00730116
0.0115023
0.00839203
0.0116659
0.00889855
0.01028
0.0199021
0.0118642
0.00944004
0.0188651
0.0122736
0.0199384
0.00639896
0.00438038
0.0051794
0.0163463
0.00824171
0.00110567
0.0193114
0.0229773
0.0229643
0.00854381
0.0129676
0.00372672
1.89559e-05
0.0092904
0.0186124
0.0222456
0.012791
0.0045372
0.013451
0.0173617
0.0136856
0.0227087
0.00861327
0.00321212
0.0117369
0.0088335
0.00672542
0.0132452
0.0210422
0.00724258
0.013023
0.00358026
0.0130659
0.00785215
0.0175574
0.0113562
0.00430438
0.0179751
0.0067216
0.014831
0.0190165
0.00903607
0.0173837
1.93395e-05
0.00855051
0.0177173
0.013614
4.86279e-05
0.0169001
0.0145902
0.00562152
0.0179986
0.0127528
0.0182449
0.0222742
0.0192933
0.0220267
0.0228134
0.0215604
0.0215295
0.020152
0.0223474
0.018134
0.00998763
0.0228237
0.0152433
0.000803832
0.00908738
0.0223333
0.0171934
0.0179658
0.00857937
0.0197944
0.00563555
0.0082524
0.0215188
0.0124049
0.0119817
0.00738002
0.0217533
0.0190101
0.00982601
9.033e-05
0.00646573
0.0225992
0.0229882
0.0215
0.0211479
0.0133309
0.020434
0.022102
0.020395
0.010244
0.0211084
0.016837
0.0184342
0.0229946
0.0087377
0.0176668
0.017718
0.018168
0.0094914
0.019821
0.0100218
0.0237518
0.0176614
0.0234628
0.016351
0.0077061
0.00688398
4.47345e-05
1.77186e-05
0.0184397
0.0167317
0.0101551
0.0224157
0.00603835
0.0195343
0.0177752
0.019027
0.0192684
0.00842699
0.0198844
0.0178156
0.000745756
0.0059084
0.00278067
0.0106771
0.0174771
0.00918994
0.00411347
0.0227665
0.016159
5.66496e-05
0.0164412
0.0229863
0.0120582
0.0207185
0.0143966
0.0123178
0.0140778
0.0212239
0.0180197
0.0108649
0.0222935
0.0161366
0.0225178
0.015083
0.0227949
0.011324
0.0180942
0.00813158
0.0202802
0.018748
0.0185547
0.0175873
0.0103731
0.0119672
0.0216844
0.0202782
0.0220305
0.022945
0.0172116
0.0218151
0.00266409
0.00187855
0.00737364
0.0228685
0.0204214
3.83578e-05
3.85051e-05
0.00316188
0.00476044
0.00971877
0.0189572
0.0152011
0.00870396
0.0229874
0.00900271
0.0231135
0.0177118
0.0224961
0.00912594
0.0228827
4.05737e-05
0.0227815
0.00508643
0.010993
0.0204854
0.00748584
0.0179501
0.00415343
0.0152962
0.0178027
0.0189819
0.00718844
0.00454503
0.0185612
2.3034e-05
0.0133061
0.0189748
0.00573335
0.0223244
0.00864233
0.0205966
0.0188811
0.0225678
3.53243e-05
0.0216186
0.00844475
0.021361
0.0216853
0.0228044
0.0226744
0.0224363
0.0209357
0.00945408
0.014194
0.01698
0.0151142
0.0176579
0.0224936
0.0229893
0.0221941
0.00821444
0.0176121
0.0226928
0.0177779
0.022217
0.023736
0.00525014
0.0202974
0.0182249
0.0204784
0.0112344
0.0180387
0.0198394
0.00843939
0.0116532
0.022707
0.0225565
0.00258238
3.75425e-05
0.00416662
0.0213083
0.0181684
0.00421728
0.0211567
0.0187847
0.022589
0.00994415
0.0158652
0.00583334
0.0225571
0.00933736
0.0153565
0.00602751
4.40025e-05
0.0186617
0.0207087
0.0204068
0.000910893
0.0226752
0.0198055
0.0160429
0.0149501
0.0189956
0.0214823
0.0180594
0.0199991
0.0227131
0.00935148
0.0188171
0.00800779
1.98382e-05
0.0115258
0.0200385
2.57477e-05
0.0132594
0.0060122
0.00622928
0.0193653
0.0194739
0.0183914
0.0160705
0.00985081
0.0187343
0.0101382
0.0223536
0.0190449
0.0201565
0.0228693
0.0090541
0.0213368
0.0225708
4.38881e-05
0.0053271
0.0186018
0.0102673
4.73555e-05
0.00765696
0.013137
2.32878e-05
0.00523262
0.0226132
0.0169492
0.0148034
0.0229166
0.0176947
0.0229329
0.0182413
0.0189928
0.0182271
0.0067326
5.01421e-05
0.0187338
0.00931912
0.0224185
0.0220029
0.0228556
0.00883627
2.20242e-05
0.0173926
0.023064
0.00930931
0.00813049
0.00295762
0.0118273
0.0183262
0.0128053
0.0221349
0.0218756
0.0190437
0.022449
0.0104662
0.0222183
0.0137513
0.0105548
0.000854981
4.55316e-05
0.0223097
0.0191532
0.0159215
0.0107642
0.0109717
0.0168945
0.0155993
0.00631429
0.00527751
0.00774482
0.00554548
4.90032e-05
0.00642793
0.0192931
0.0223925
0.0189041
0.00469638
0.0211421
0.0177512
0.0206454
0.0114382
0.0152702
0.0145614
0.00964172
0.00903663
0.021239
0.00983844
0.0155707
2.17671e-05
0.0223011
0.00492196
0.0103534
0.00310671
0.0177135
0.0104671
0.0150954
0.00181646
0.0229628
0.014731
0.0176464
0.02245
0.0225115
0.000644515
0.0199688
0.00134833
0.00627802
0.00339686
0.0227622
0.00545642
0.0229101
0.00989381
0.0171925
0.0111823
0.0226371
0.0229454
3.50663e-05
0.0067134
0.0220821
2.40188e-05
0.0128523
0.0214223
0.0219336
0.021622
0.0100401
2.06864e-05
0.0197125
0.021365
0.0186647
0.014989
0.0201349
0.0220261
0.0166425
0.0171946
4.62178e-05
0.0181685
2.00027e-05
0.020298
0.00197472
0.00453604
0.0141923
0.0148649
0.00214002
0.022709
0.0181096
0.0184593
0.02082
3.07233e-05
0.0192272
0.0224116
0.0102839
0.00782951
0.00996595
0.0168615
0.00196957
0.0188654
0.0211641
0.022818
0.0102842
0.0104926
0.018815
0.00772197
0.021164
0.00768712
0.00823092
0.000683466
0.0202729
0.0084464
0.0216553
0.02298
0.000733873
0.00416083
0.02045
0.0195931
0.0124477
0.0142173
0.0213359
0.0216515
0.0148768
0.0109036
0.0229922
0.0229866
0.00398849
0.0216856
0.0110766
0.0230024
0.00408182
3.03381e-05
0.0180696
4.14253e-05
0.00991484
0.0199614
0.0113668
0.00889495
0.0121714
0.00846447
0.016494
0.0210663
0.0200831
0.0228402
0.0224675
0.0107808
0.0186868
0.00578256
3.31279e-05
0.0225498
0.0192862
0.0203242
0.0206856
0.021022
0.021358
0.0233098
0.0188473
0.0187954
0.0216422
0.0183444
0.0201496
0.0196856
0.0187618
0.021107
0.0215618
0.00236828
0.00860008
0.00871481
0.00921597
0.0183716
0.0029517
0.0196586
0.000700087
0.0210481
0.0172843
0.00979809
0.0140373
0.0180408
0.0197867
0.0214318
0.00258145
0.0205947
0.011847
0.0209802
0.0209841
0.0223953
0.0110954
0.00909897
0.0156754
0.0175102
0.020609
0.0227372
0.0193056
0.0126058
0.0156274
0.01773
0.020334
0.0208381
0.019264
0.011319
0.00113468
0.00382305
0.0145919
0.00418887
0.0112051
0.00756804
0.0133453
0.0141944
0.00931853
0.00206129
0.0215865
0.00606607
0.0106298
0.00604719
0.00185308
0.0156047
0.0195061
0.0112061
0.0190759
0.000776383
0.00794905
0.000932217
0.019003
0.0171847
0.0111007
0.0060407
0.0197924
0.00741068
0.0140881
0.0211883
0.0222443
0.0221618
0.0180131
0.0177878
0.0226806
0.022949
0.00564681
0.0228692
0.00983042
0.00980814
0.00251749
0.0207474
0.0136126
0.014138
0.00196622
0.0177417
0.0136775
0.0229825
0.00444836
0.0112565
0.00918599
0.0178136
0.0194869
0.0207194
0.000840763
0.0116726
0.0158552
0.0193256
0.00833242
0.0108774
0.0210786
0.0184078
0.0172976
0.006901
0.0180596
0.0199991
0.00845401
0.0138408
0.022956
0.00711334
0.0163531
0.0060199
0.0173714
0.00245702
0.0101086
0.0210578
0.0169025
0.00572893
0.0141889
0.0219836
0.000716544
0.00987075
0.00106294
0.0126317
0.0113867
0.0145721
0.0211853
0.00630371
0.0178579
0.022285
0.0197186
0.0206062
0.0222104
0.0034457
0.00764099
0.00958431
0.0134297
0.0189269
0.0151797
0.0230116
0.0165908
1.8335e-05
0.0133109
0.0199865
0.0216613
0.0108543
0.0179
0.0072161
0.0181874
0.00617098
0.022624
0.00815145
0.0200583
0.00847667
0.0167907
0.0208388
0.00912869
0.0026918
0.000976482
0.0180701
0.00320297
0.0128621
0.0109467
0.0167635
0.0160063
0.0135867
0.0160163
0.0213965
0.017925
0.0102274
0.0168231
0.00992899
0.00476958
0.0203884
0.00944383
0.0185091
0.00879098
0.0228762
0.0220772
0.0222974
0.0201357
0.00581536
0.0063007
0.0174769
0.0140667
0.0202991
0.0202983
0.017557
0.0187735
0.022622
0.0229051
0.023494
0.0195444
0.0181905
0.00815309
2.68966e-05
0.0197052
0.0178645
0.0137397
0.00545803
0.0162861
0.0191423
0.0225718
0.00536084
0.0202184
0.0229718
0.0230012
0.0038134
0.0225567
0.0186513
0.0199396
0.014979
0.000221752
0.0109291
0.021183
1.68733e-05
0.00362235
0.0228402
0.0108525
0.00587494
0.022227
0.00985838
0.0184329
0.0224663
0.0182137
0.00372865
0.0190164
0.013717
0.0101637
0.0226734
0.0208562
0.0046426
0.0179388
0.00281009
0.0213169
0.0144169
0.0155228
0.0233841
0.0123725
0.00728801
0.022146
0.0182409
0.0123478
0.0195718
0.00765314
0.00342408
0.0057662
0.0176265
0.0184484
0.0224604
0.00856267
0.0186476
0.0183678
0.0194311
0.0153735
0.02237
0.02379
0.0183447
0.0219808
0.0120487
0.00987892
0.0163271
0.0203252
0.00567715
0.0200086
0.0177218
0.0174494
0.00121952
0.0229816
0.0195532
0.00402603
0.0185539
0.0225514
0.022071
0.00993971
0.0225856
0.0134275
0.00707454
0.0205295
0.00774415
0.0172069
0.0231557
0.00605534
0.0089003
0.00384296
0.0180554
0.0138261
0.0174342
1.933e-05
0.00568576
0.0229141
0.0145469
0.0227406
0.0097558
0.0226051
0.0225721
0.0208888
0.0186485
0.0192091
0.0229011
0.00345402
0.0192588
0.0206309
0.0227705
0.0198846
0.000962969
0.0130384
5.26778e-05
0.0186951
0.0233298
0.00538004
0.0226472
0.0221747
0.0190553
0.0230092
0.0228934
0.0162074
0.0184637
0.0195072
0.0133098
0.00936338
0.0048099
1.0989e-05
0.0117337
0.0220362
2.7886e-05
0.00229697
0.0148214
0.00111509
0.00188393
0.00413856
0.0118334
0.0191428
0.0035177
0.0177746
0.00962066
0.0187115
0.017944
0.0210913
0.0188363
0.00797476
0.015523
0.00131558
0.0219652
0.0235484
0.021921
0.0160756
0.0178711
0.0196715
0.0169167
0.0110051
0.017232
0.00491654
0.0230109
0.0223624
0.0097337
0.0186849
0.0178672
0.0162956
0.0180546
0.0156959
0.000770669
0.0208395
0.0213395
0.0133846
0.0172914
0.010702
0.011118
0.0132319
0.0182607
0.0192342
0.0141622
0.00806471
0.0208613
0.0190163
0.00703328
0.0193392
0.0205042
0.0145063
0.020883
0.00409296
0.0204775
0.00993246
0.0201302
0.0231116
0.0181075
0.0198455
0.0216413
0.0124527
0.0179579
0.0178795
0.0183265
0.0131956
0.00873037
0.0186102
0.0155154
0.00882709
0.0116656
0.0197624
0.0100902
0.00706697
0.00377159
0.0229012
0.00556819
0.0182156
0.00949584
0.0190376
0.012694
0.00284954
0.00592552
0.0227175
0.0230138
0.0111383
9.92874e-05
5.95365e-05
0.0186853
0.00376166
0.018341
0.021579
0.00686919
0.0129214
0.0189744
0.0113083
0.0171779
0.0221766
0.0056673
0.00255913
0.0121086
0.0187458
0.0217199
0.017168
0.018754
0.0210793
0.0187142
0.00788244
0.00827257
0.0100282
0.0188946
0.018268
0.00818756
0.0099338
0.0112819
0.0160163
0.00801679
0.00878591
0.0227833
0.0227522
0.0177419
0.0193838
0.0195862
0.00103322
0.0113882
0.0228357
0.0230372
0.0229235
0.0183571
0.0167233
0.000874404
0.0089625
0.0181504
0.0178792
0.018116
0.00067743
0.0123727
0.0103369
0.0226755
0.0122168
0.022536
0.0180917
0.012093
0.0216493
0.00292188
0.0168223
0.0195152
0.00850605
0.0204794
0.00552611
0.00749875
0.0167311
0.00878623
0.0221513
0.0163334
0.0041574
0.0144706
0.0186006
0.00802614
0.00738158
0.0224202
0.0198375
0.00723323
0.000775472
0.0193021
0.0117247
0.00879045
0.0154849
0.00105454
0.00764029
0.00103965
0.00742182
0.00593494
0.00611099
0.00922245
0.0117739
0.00870039
0.0109558
0.0179554
0.0198016
0.019639
0.0118823
0.0195453
0.00883819
0.00117749
0.0211687
0.020132
0.0178419
0.0180052
0.0199071
0.00925765
0.0134337
0.0128867
0.014468
0.0101649
0.0095993
0.0194802
0.0190158
0.00956475
0.0180573
0.0218545
0.0224395
0.0188022
0.000885523
0.0226924
0.00296994
0.0228071
0.0220178
0.00216048
0.0183255
0.0133891
0.00876611
0.0103228
0.00686816
0.0213768
0.0227839
0.0184667
0.0177795
0.0157382
0.00699671
0.00619642
0.0189333
0.00361948
0.00878388
0.00676335
0.022674
0.0216094
0.0199625
0.0179322
0.0103277
0.0160394
0.00949882
0.017793
0.00729091
0.0125457
0.0177206
0.011497
0.00971992
0.0179808
0.011238
0.0114603
0.012973
0.0168318
0.00124856
0.0177876
0.018079
0.0169563
0.0118393
0.0220194
0.00651075
0.0130218
0.00565421
0.0179512
0.0225671
0.00926608
0.0182893
0.0223103
0.013205
0.00480452
0.0201964
0.0131972
0.0178961
0.00865795
0.012354
0.0227575
0.000796803
0.0227017
0.00673934
0.0131599