/*--------------------------------*- C++ -*----------------------------------*\
  =========                 |
  \\      /  F ield         | OpenFOAM: The Open Source CFD Toolbox
   \\    /   O peration     | Website:  https://openfoam.org
    \\  /    A nd           | Version:  10
     \\/     M anipulation  |
\*---------------------------------------------------------------------------*/
FoamFile
{
    format      ascii;
    class       volScalarField;
    location    "800";
    object      p;
}
// * * * * * * * * * * * * * * * * * * * * * * * * * * * * * * * * * * * * * //

dimensions      [0 2 -2 0 0 0 0];

internalField   nonuniform List<scalar> 
23845
(
-0.127321
-0.169624
-0.254544
-0.251465
-0.147091
-1.45938e-05
-0.238964
-0.256892
-0.000834792
-0.0859624
-0.0160637
0.00021045
0.000555625
-0.000322089
-0.246339
-0.0417175
0.00103738
0.000497327
-0.00106224
0.000525598
-0.146269
-0.01476
-0.191585
-0.000377863
-0.0484485
-0.000129297
-0.215758
0.00306159
-0.26459
0.000366475
-0.247245
-0.243588
-0.256931
0.000188076
0.000322177
0.000691828
-0.253785
6.51012e-05
0.00104887
0.000200938
-0.00495883
0.00136938
0.000199128
6.9227e-05
0.000120723
0.00105976
-0.164734
-0.0320172
-0.236543
-0.267326
-0.24452
-0.246973
-0.236615
0.000918616
-0.246158
0.000550883
-0.194417
-0.254066
-0.1496
-0.231116
-0.262946
0.002477
-0.0271757
-0.265187
-0.000195275
-0.00133655
-0.227639
-0.000741593
-0.00171702
-0.00338776
-0.259392
-0.259046
-0.000486542
-0.24584
-0.00123495
-0.247463
0.000264626
-0.000403338
-0.253642
-0.000651183
-0.198463
-0.239366
-0.180709
-0.257682
-0.250605
0.000404167
-0.233857
-0.234089
-0.000641394
-0.00118095
-0.248975
-0.0120796
-0.266748
0.00183138
-0.251091
-0.253339
-0.00162574
-0.0371897
-0.000314529
-0.147878
0.000259758
-0.242104
-0.109983
-0.274884
-0.269367
-0.256664
-0.000345956
-0.00102823
-0.229138
0.00149255
-0.0125317
-0.000373325
-0.254905
-0.0618493
0.000544783
-0.127506
-0.000435497
-0.0660824
-0.263449
-0.262949
0.000274612
-0.247686
-0.00395554
-0.261394
-0.233398
0.0012695
-0.262059
-0.268588
-0.257299
-0.186341
-0.25901
-0.0588885
-0.0379674
-0.000389249
0.00131856
-0.117546
-0.272807
0.00025089
-0.224153
3.08162e-05
-0.263397
0.000833285
0.000497501
0.00047761
-0.0165617
0.00108822
-0.0987559
-0.245845
-0.262508
-0.00471111
-0.241938
0.000762861
-0.223624
-0.000892846
-0.254674
-0.00828964
-0.118848
0.000347654
-0.259751
-0.258137
-0.00777845
-0.25006
-0.24984
-0.000286761
-0.00170431
-0.00309925
-0.000559891
-0.250602
-0.000990327
0.00079781
-0.000885855
-0.252677
0.000114498
-0.261115
-0.000461336
-0.252635
-0.0174469
-0.0169826
0.000652436
0.000543717
-0.141615
-0.144634
-0.243675
-0.00953741
-0.0248734
-0.000255392
0.00214721
-0.257114
-0.265751
0.000805308
-0.267245
-0.00179525
-0.000290124
-2.93348e-05
-0.0143037
-0.000584116
-0.272326
-0.267425
-0.282217
-0.0154629
-0.00175925
-0.00112568
-0.262619
-0.0508899
-0.257288
-0.250932
-0.256287
3.88449e-05
-0.172235
0.000790022
-0.00210163
-0.255194
-0.0276535
-0.00189469
-0.240003
-0.250594
-0.0462892
0.00148431
-0.265082
-0.258405
0.000465414
-0.24769
-0.27258
-0.00939877
0.00164241
-0.247977
-0.268046
0.00124588
-0.000265385
-0.00589759
0.000815083
-0.237447
0.000538635
-2.11437e-05
-0.132809
-0.262741
-0.00027587
-0.248291
0.00238339
-0.25624
-0.235793
-0.0794085
-0.255594
-0.123893
-0.248475
-0.0325572
-6.23e-05
0.00209575
-0.251418
-0.241515
0.00151367
0.000644772
-0.245555
-3.75867e-05
-0.237039
-0.251269
-0.262525
-0.251343
0.000256473
-0.000425109
-0.232445
-9.25653e-05
-0.261341
-0.0100962
-0.0070616
0.00137846
-0.251884
-0.262762
-0.233688
-0.250349
0.000332811
-0.254564
-0.241979
0.00087903
-0.010882
-0.000386087
-0.25085
0.00210388
-0.278254
-0.192732
-0.257326
0.000459068
-0.246771
-0.0102788
0.000448386
-0.26351
-0.258739
9.93718e-07
-0.252238
-0.251482
-0.252337
-0.240232
-0.264761
-0.251523
-0.252245
0.000324721
-0.263703
-0.000393369
0.000247971
-0.26064
-0.262609
-0.244685
-0.263423
-0.249295
-0.000303949
-0.248189
-0.267115
-0.242983
-0.000753686
-0.271356
-0.241228
-0.219814
-7.69376e-05
0.0035464
-0.254196
-0.264808
-0.263497
-0.0350734
-0.252415
0.000108934
-0.270262
-0.25303
-0.262297
0.000990986
-0.25047
0.000275851
-0.252294
-0.195815
-0.26333
0.00142784
-0.248569
-0.0119448
-0.247181
3.84135e-07
-0.260007
-0.249125
-0.250725
6.21728e-05
0.000998535
-0.252459
-0.253921
-0.262392
-0.0150276
0.000707512
0.000472369
-0.28228
0.000280608
-0.251884
-0.252853
-0.246272
-0.247396
-0.263243
-0.268904
-0.249147
-0.236553
0.00228894
0.000863248
-0.00121589
-0.250695
-0.253664
-0.259605
0.00255075
-0.0924822
-0.00830401
-0.264835
-2.89478e-05
-0.26046
-0.000927701
-0.262201
0.000352928
0.00135375
-0.25072
-0.2717
9.83637e-05
-0.000533159
-0.249503
-0.252558
-0.249791
0.0012174
-0.256914
-0.247904
0.000655725
-0.179317
-0.00045912
2.50855e-05
0.000576558
0.000723831
-0.251872
-0.00131097
-0.252178
-0.230599
0.001885
-0.267615
-0.270888
-0.240658
-0.258321
-0.00624191
0.000143364
-0.00398984
0.000238863
-0.252979
-0.237386
-0.250364
-0.255307
-0.222852
-0.246183
-0.000191442
-0.268921
-0.267993
-0.262644
-0.250859
0.00105706
-0.234381
-0.262864
-0.120618
-0.25364
-0.23111
-0.00802376
0.000668014
-0.121286
-0.264218
0.000632108
0.000335261
-0.25297
-0.261871
-0.157402
-0.272681
-0.245149
-0.260628
-0.260365
-0.000496952
0.000313356
-0.262348
0.000640266
0.000462278
0.000315728
0.000846312
-5.49461e-05
-0.264534
-0.260513
-0.249117
-0.268531
-0.269782
-0.262682
-0.241737
-0.264033
0.000985769
-0.219399
0.00123383
-0.255048
-0.254572
0.00157427
-0.275739
0.000757808
-0.000710301
-0.260908
-0.220406
-0.0568814
-0.250637
-0.00255301
-0.193483
-0.252477
-0.270734
-0.208759
0.00144445
-0.000148043
0.000276607
-0.238546
-9.7311e-05
-0.255399
0.00168422
-0.000451242
-0.24042
-0.262456
-0.265984
-0.122737
-0.000904554
-0.24635
-0.000568956
-0.00414886
-0.194777
-0.22201
-0.245902
-0.0157111
-0.00121922
-0.244166
-0.000105551
0.000329676
-0.248901
-0.261817
-0.000358807
-0.262506
-0.251797
-0.21095
-0.258888
-0.176206
-0.000788045
-0.25519
-0.000131996
0.000447249
-0.233263
-0.260677
-0.26146
-0.18603
-0.256719
-0.255307
-0.00831832
-0.000590163
-1.69655e-05
-0.261667
-0.246054
-0.262494
-0.254728
-0.243542
0.0013055
0.0002931
-0.229938
-0.255264
-0.254535
0.00672722
-0.247266
-0.000142443
0.00063643
-0.264931
-0.000959665
-0.24808
-0.253275
-0.264759
-0.176838
-0.259563
-0.261194
-0.269485
-0.0927663
-0.189517
0.00023698
-0.000599267
-0.00104944
-0.263645
-0.147712
-0.254123
-0.259037
0.00319875
-0.178215
-0.178849
-0.0114562
-0.177127
-0.0177151
0.00365389
-0.0002313
0.000964615
-0.00156335
0.000338684
-0.260849
-0.00108804
-0.25524
-0.205974
0.00150449
-0.261268
-7.2671e-05
0.00217882
-0.251198
-0.252886
-0.205177
-0.000384552
0.00289805
-0.271761
-0.268834
-0.000994229
-0.264765
-2.01501e-05
-0.000466396
-0.244056
-0.00068254
0.000894351
-0.0504431
-0.124328
-0.262852
-0.249617
-0.2513
-0.146937
-6.58242e-05
0.000292323
-0.0119766
-0.249537
-0.263997
0.00201687
0.000807745
0.000831215
-0.249622
-0.00144628
-0.199561
-0.250527
-0.152653
-0.00725025
-0.255623
-0.000709205
-0.000749804
0.00334158
0.000746648
0.000335758
-0.252809
-0.000278555
-0.120669
-0.247351
-0.257501
-0.0460157
-0.249109
-0.134143
-0.24115
-0.00730836
-0.192888
-0.122903
-0.201764
-0.122219
-0.26373
-0.121645
-0.0661092
-0.102475
0.000354784
-0.000803753
-0.124986
-0.259545
-0.157925
-0.00277221
-0.149264
-0.000880195
-0.00390233
0.000915603
-0.00127831
-0.0539081
0.000602246
0.000817884
-0.211673
-0.000338989
0.000323478
-0.254803
-0.113
-0.059159
-0.000468813
-0.00765528
-0.183622
-0.00226298
0.0015908
-0.000536842
-0.115174
-0.0366303
-0.144166
-3.60997e-06
-0.0413833
-0.255322
0.000420015
0.000541852
-0.0723515
-0.256147
-0.264206
-0.266968
-0.262099
-0.0429818
-0.262265
-0.0145303
-0.00366706
-0.00106117
-0.000344363
-0.145857
-0.000394219
-0.00139263
-0.00107552
-0.11458
-0.23729
-0.0279895
-0.043711
-0.00268534
-0.0110354
-0.00693863
-0.00335295
-0.0439088
-0.00108233
-0.0610298
-0.0124212
-0.000156228
-0.0185157
0.001102
0.00303661
0.000538139
0.00042569
-0.0428906
0.000454857
0.00163922
-0.0364293
-0.0371584
0.00196998
0.000535787
-0.0046354
-0.0087096
-0.0137974
-0.0216161
-0.0373093
-0.00154255
-0.053881
-0.000997368
-0.0181442
0.00055818
-0.00922798
0.00065738
0.000740461
0.000114858
7.51022e-05
0.00123
0.000774703
-0.00112057
0.000110735
-0.235041
0.00181452
0.000671131
0.000332785
0.000947845
0.000215203
-0.00669813
0.00168789
-0.00879979
-0.014988
-0.000434651
0.00206175
-0.00027095
0.000488879
-0.025903
-0.0108691
-0.0802999
0.0020588
-0.00675158
0.000866705
0.000861559
0.000824654
0.000254362
-0.0308732
0.0020875
-0.106424
0.0016824
-0.000216148
-0.00068168
-0.000848422
0.0012644
0.000346953
-0.261012
0.0011438
-0.00109794
-0.0666084
0.00093668
0.000861539
0.000986123
-0.235721
-0.00352281
-0.00020677
-0.0401166
0.00151622
-0.261215
-0.0207611
-0.0140385
-0.0278148
-0.0177707
-0.0513919
-0.00428249
-0.00166906
-0.00482617
-0.0136678
0.000244646
-0.00755189
0.00141687
-0.1607
-0.000312396
0.000654242
-0.0376816
-0.0227785
-0.0298433
-0.252489
-0.00818217
-0.00315657
-0.103381
-0.0128796
0.0017024
0.000863702
0.000130825
-0.245408
0.00237878
-0.00669624
0.00193601
-1.63351e-05
0.00145491
0.00263098
0.000997524
0.0011699
-0.000240333
0.000370648
0.00106102
0.00159717
0.0011931
-0.183137
0.00142007
0.00134828
0.00207625
0.00290972
0.000593266
-0.0591526
-0.00251063
-0.0140857
-0.00116905
0.00339672
0.00164526
0.000529415
0.00430134
-0.127273
-0.0271241
-0.0250897
0.000994176
0.000492393
-0.00305673
-0.265251
-0.0081739
-0.00530866
-0.0150985
-0.00050354
-0.00108921
-0.0255051
-0.00167683
-0.00189666
-0.000365951
-0.00364679
-0.00119422
-0.000270895
-0.000848381
-0.00114288
-0.000280067
-0.00143517
-0.00454933
-0.000855344
-0.00152382
-0.0404332
0.0013615
-0.0014175
-0.256371
-0.0432
0.000386068
-1.58909e-05
0.000716763
-0.0237577
-0.0123205
-0.0154412
-0.00730836
0.000513887
-0.00855005
-0.00515589
-0.00855412
-0.0305657
0.000179019
0.00189161
-0.000364198
-0.00105982
-0.00637055
0.000336943
-0.246966
0.000498736
-0.0266543
0.00340662
-0.0633874
0.000810085
-0.00102082
-0.0211597
-0.00786431
-0.087024
-0.0578999
-0.010041
-0.105203
-0.00152831
-0.00314894
0.000171435
-6.41556e-06
-0.00041657
-0.0001348
-0.000503643
0.00100166
-0.000796591
-0.0241495
0.000825904
-0.0234271
-0.0304087
-0.0175584
-0.0113225
-0.0960217
-0.00902771
-0.000406162
-0.0238535
-0.00018889
-0.0644467
-0.00352872
-0.000448353
-0.11455
-0.00366717
-0.00041161
-0.00771629
0.000952855
0.000853499
-0.232337
-0.000739072
0.000906663
-0.00153143
0.000709059
0.0013278
0.000534795
-0.00782218
-0.268812
0.000517332
0.000150475
-0.00355813
-0.00630787
-0.109487
-0.0127517
0.00161995
-0.013448
0.000309535
0.00335232
-0.257266
-0.272649
0.0012174
-7.29506e-05
0.00315073
-0.222594
0.00033746
-0.250761
0.00197179
-0.000133733
-0.00296575
-0.00197863
0.000922453
0.0008137
0.00123666
-0.0995085
0.000486781
-0.13892
-0.0104096
-0.0405443
-0.000214215
-0.0098351
-0.000986326
-0.00580852
-0.00157026
-0.000476223
-0.0193646
0.000601127
-0.0110032
-0.0165039
-0.0249734
0.00346612
-0.00972286
-0.0134043
0.000309517
-0.0302798
-0.0169028
-0.00719844
-0.0385437
0.000394498
0.00147924
0.000943129
0.00146347
0.00143448
0.000439753
-0.00930259
0.000430887
0.000984819
-0.00582172
-0.00512384
-0.00557499
-1.5233e-05
-0.210992
0.00133338
0.000145636
0.00153852
0.00101968
-0.00090025
-0.00211784
-0.0116993
-0.0964718
-0.133761
0.000227049
-0.00169064
-0.0199505
-0.039379
0.00172474
-0.0449264
-0.00101203
-0.0030031
-0.00920463
-0.0400483
-0.00105603
-0.0120061
-0.0262842
-0.0128809
-0.0310601
-0.0228059
-0.0285618
0.00152201
0.00163858
0.00221505
0.00116286
-0.00712092
-0.0128621
0.00023708
-0.281404
0.000643051
-0.256273
0.000217393
0.000502393
-0.269641
0.000998686
-0.0013117
8.9057e-05
-0.00024203
-0.00192077
0.000837462
0.00152947
0.00124201
-0.0440465
-0.263881
0.000805495
-0.000951031
-0.00455945
-0.178803
-0.203537
-0.126633
-0.0162325
0.000663671
-0.00152932
0.00257517
0.000451977
-0.000429428
0.0027433
-0.134052
-0.0928263
-0.0374252
-0.0843353
-0.0559213
-0.102956
-0.123693
-0.0379497
0.00147012
-0.0713268
-0.0205753
-0.0286437
-0.0268636
-0.00933258
-0.0156774
0.000767815
-0.0112871
0.00210965
-0.00676285
-0.000908036
0.000268654
0.00135926
0.000350117
0.00139668
0.000500654
4.66951e-05
-0.00237196
-0.165077
-0.0602093
0.000793454
-0.0899579
0.000701538
-0.00221076
0.003833
0.000335506
0.000893403
0.00302923
-4.54669e-05
0.00185975
-0.00304038
-0.000469396
-0.117743
-0.00153788
0.00121516
-0.0813426
-0.000542067
-0.000724294
-0.00338009
-0.0483603
-0.00114684
-0.259154
-0.254589
0.000523665
-0.00844713
-0.0115095
-0.0212517
0.000423986
0.00150348
-0.0124273
-0.00488038
-0.00853467
-0.00500772
-0.0018872
0.00107528
-0.275724
0.000838258
-0.0340193
0.00102616
0.00110659
-0.0528434
-0.000217702
0.000139318
-0.263613
0.00149745
-7.34421e-05
-0.000120194
0.00158672
0.00203394
0.000958196
0.0012347
0.00117748
-0.070191
0.00209274
0.00186823
-0.191338
0.000532059
0.00173804
0.00166
-0.215633
0.000318892
0.000334906
-0.084228
0.000306311
-0.00152196
0.00120664
-0.000317582
-0.000156881
-0.261173
-0.00105991
0.00187358
-0.00879857
-0.0204205
-0.091402
-0.0138417
-0.00526174
-0.000563915
0.00140763
0.00114013
-0.0016031
0.00136251
-0.0589611
0.00131372
0.000852387
-0.000450755
-0.000149766
0.000921982
-0.246744
-0.259675
0.00126344
-0.000401157
0.000181354
-0.169733
0.000675646
-0.000698184
-0.0162709
0.000647636
-0.251232
0.000656821
0.00210485
0.000545964
-0.00132472
-0.000239488
-0.00266788
-0.0115051
5.36602e-05
-0.0266826
-0.00191128
0.000930324
-0.0033262
0.00237016
-0.00172896
-0.0105138
-0.00449042
-0.0112045
0.000909247
0.00137436
-5.77757e-05
-0.00218315
-0.00223276
0.00186197
-0.00399711
-0.00315975
-0.0394624
-0.000524225
-0.000698605
-0.0623665
7.19885e-05
-0.00245257
-0.0939658
-2.48781e-05
-0.0019177
-0.134471
-0.00124859
-0.00051456
-0.111369
-0.0564967
-0.175671
-0.000989202
0.00392092
-0.0636779
-0.000357193
0.000523253
-0.11136
-0.0293186
-0.0507766
0.000834938
-0.0767561
0.000567803
-0.00214452
-0.0480333
-0.0159379
-0.000353125
-0.0136549
-0.0738947
-0.279482
-0.00016395
0.000353797
0.000274071
0.000702009
0.00158269
0.00195205
0.0017235
-0.247513
0.000648161
-0.00136722
-0.0514996
4.32134e-05
-0.0251635
-3.07208e-05
-0.158137
-0.000229755
-0.00109362
-0.180146
-0.000687717
0.00281283
0.000200321
-0.00195018
-0.262817
0.00090008
-0.103323
-0.00294471
-0.0252304
-0.259912
-0.252912
-0.0554816
0.00140024
0.000490912
-0.185815
0.00184418
0.00327204
0.00019101
-0.1277
0.000924221
0.000599284
-0.000359509
-0.109616
-0.00137813
0.00116311
-0.000681126
-0.00177702
-0.267221
-0.00341452
-0.00445088
-0.0958343
0.000193494
-0.261779
0.00020075
-0.256893
0.00115544
-0.111804
-0.000771694
0.00161697
0.000669567
-1.4069e-05
-0.00374361
-0.00425815
-0.00972207
-0.0249028
0.000430425
0.00104702
0.000962611
-0.0240646
-0.0217567
-0.000238596
0.000708356
0.000806035
-0.000649779
-0.00482063
-0.004934
0.00296306
-0.00790388
-0.00628682
-0.0887645
-0.00095299
-0.171629
-0.00152795
-0.00354754
0.00151341
0.00211299
-0.254923
-0.0653665
-0.0335267
-0.000235066
-0.0474136
0.000180382
0.00114504
-0.0699462
0.000747331
-0.226697
-0.262354
-0.0972206
-0.00449804
-0.000112669
-0.263905
-0.00273204
-0.00771702
-0.00156759
-0.0573181
-0.198439
-0.00173153
0.000936245
-0.250957
-0.250769
2.08719e-05
-0.0844668
-0.100998
0.000739856
-0.260715
0.000910693
-0.114877
0.000584939
-0.0704362
-0.000354285
-0.0564537
-0.203766
0.000840587
-0.255464
-0.103751
0.000478574
-0.262698
0.00118818
-0.0519608
-0.0963089
-0.255012
-0.000298607
-0.0298313
-0.177984
0.00247675
-0.0887915
0.000907775
0.00212829
0.00339166
-0.0050114
-0.0757331
-0.000371168
0.000417949
-0.138107
-0.00333411
0.00106206
0.00189811
5.05501e-05
0.00122223
0.00183954
-0.0766603
-0.217058
-0.0800274
0.000918674
-0.00445553
0.00056086
-0.000234889
-0.00374013
0.000248043
-0.258634
-0.000894214
-0.0857739
-0.258279
-0.000368007
0.000470747
-0.00983135
-0.0290679
-0.0936468
-0.180394
-0.00976635
0.00144469
-0.00393474
-0.00143311
0.00101383
0.000812827
-4.06766e-05
0.000217522
0.00075533
-0.0915994
-0.261289
0.000325989
-5.66417e-05
0.00221637
-0.21351
0.00074063
-0.00493627
-0.00137687
0.00139116
0.00194058
-0.00295839
-0.024316
-0.0250712
-0.00160575
0.000208531
-0.0048835
-0.243274
-0.254329
-0.000271933
0.00761944
-0.0236125
-0.00025383
0.00019738
8.935e-05
0.000414942
-0.00455526
-0.00287049
-0.261785
-0.000497908
-0.245536
0.000635323
0.00135549
-0.193077
-0.00386134
-0.0870524
-0.00258148
-0.00962366
-0.0151345
-0.00629348
-0.00285984
-0.0705753
0.00246161
0.00110135
0.00148158
-0.00160836
-0.253083
-0.00427013
-0.000854786
-0.00421469
-0.0556731
-0.253514
-0.0105787
0.00172202
-0.215166
0.00081304
-0.000191369
-0.0288295
-0.202878
-0.260333
-0.263603
-0.00206227
0.000350616
-0.0220877
-0.000341855
-0.214489
-0.0636268
0.00150156
-0.0082173
-0.144324
0.000242429
-0.215937
-0.00872664
-0.0392559
-0.00290534
-0.13112
-0.0802333
0.000855458
0.00121944
-0.261142
0.00273853
-0.000454494
-0.0940611
0.00151907
-0.00833675
-0.0932319
-0.0439896
-0.256491
0.000159488
-8.8294e-06
0.00186561
-0.25987
0.00090115
-0.00168065
-0.00191733
-0.258501
0.000920351
-0.00109979
-0.00128065
-0.259976
-0.0472342
0.000372837
-0.00482903
0.000218294
0.000838747
0.00247346
-0.236145
-0.0185609
5.00857e-05
0.00117149
-0.155276
-0.0410165
-0.00081748
-0.0144616
0.000281909
0.00086898
-0.258347
0.00233167
-0.0285483
0.000396892
-0.0163309
-0.256824
-0.260513
-0.257186
-0.233861
-0.208678
0.000182631
-0.0881785
0.00136499
-0.000243034
0.00140222
-0.205575
0.00104044
-0.245029
-0.265729
0.00108947
0.000615213
-0.243863
-0.263489
-0.0777024
-0.234619
-0.100939
-0.204839
0.000342913
-0.0968545
-0.26823
0.00131253
-0.245625
0.000660763
0.000445414
-0.174209
-0.265543
-0.260585
-0.188618
-0.155145
-0.000375733
-0.270093
0.000562976
-0.108035
0.000597414
-0.21628
-0.0718631
-0.00191748
-0.164428
0.000454477
-0.000639505
-0.000367474
-0.26856
-0.245877
-0.256589
-0.258908
0.000427721
-0.150584
0.000868056
0.00296824
-0.000358568
-0.0433525
-0.260254
0.000896422
-0.00186173
-0.186031
-0.243903
-0.00925834
0.000444719
-0.2529
0.00125136
0.00100009
0.000303216
-0.000310028
0.00108559
-1.22307e-05
0.00141847
-0.244274
0.000949511
0.00225204
6.7678e-05
-0.0350907
-0.25361
-0.0953693
0.000150308
-0.255604
-0.0668124
-0.0500265
0.000232549
-0.264784
-0.00514119
-0.269575
-0.257035
-0.257894
0.00313433
0.000942336
-0.192476
-0.161133
-0.000469914
0.000476287
-0.150423
-0.172255
-0.213944
-0.0124921
-0.266369
0.00360723
-0.254264
-0.00183397
-0.255203
0.000856484
0.00128279
-0.00290276
0.00163115
-0.261279
-0.00147609
-0.252561
-0.256351
-0.00648168
-0.0163284
-0.104111
-0.266557
-0.158328
0.000441874
-0.0705798
-0.0666225
-0.191593
-0.000576808
-0.252825
-0.135267
-0.252048
-0.258573
5.29085e-05
0.000509483
-0.0486987
-0.251932
-0.00594694
-0.17318
0.00184088
0.00176096
0.00122001
-0.000910299
-0.26304
0.000400733
0.00042316
-0.213976
-0.0315196
-0.206289
-0.179396
-0.264545
-0.253194
-0.172923
-0.240758
-0.248099
-0.076854
-0.0103727
-0.264835
-0.00045186
-0.25081
0.000915612
-0.262009
-0.26459
0.00140733
-0.000462122
-0.000896503
0.00227791
0.000485325
-0.000190638
-0.0031418
-0.000240787
-0.164446
-0.135769
0.000599575
-0.0729857
-0.0471126
-0.246198
-0.263925
-0.253119
-0.255751
-0.257064
-0.193182
-0.267582
-0.0216259
7.28044e-05
-0.264652
-7.98904e-05
-0.244646
-0.0764266
-0.00518803
-0.2609
-0.0567323
-0.000791091
-0.254168
0.000525842
-0.222717
-0.119633
-0.0256118
-0.242634
0.00307191
-0.149324
-0.00234806
0.00107088
-0.208708
-0.279056
-0.0015265
-0.00300703
-0.00260196
-0.00690046
0.00133812
-0.250048
-0.00341388
-0.00157191
-0.190806
0.000218601
-0.259876
-0.0240609
0.00213253
-0.0399004
-0.256106
-0.262988
-0.259364
-0.260586
-0.235835
0.000455443
-0.240979
1.34631e-05
0.000255666
-0.250857
0.000312259
-0.256417
-0.205035
-0.216946
-0.257864
-0.00667779
-0.242544
0.00155839
0.00123837
0.000363617
-0.00423485
-0.253359
0.00133523
0.000917368
-0.00405672
-0.248249
0.000147128
-0.240982
-0.256061
-0.0012758
-0.265243
-0.258281
-0.203415
0.000525251
-0.257017
-0.00127887
-0.000114228
0.00154186
-0.259778
0.00131462
0.00181945
0.00083545
-0.101446
-0.000168927
-0.252314
0.00109197
-0.000493152
-0.016115
0.000262043
-0.21405
-0.000496612
-0.000583349
-0.160307
0.000721488
0.000260387
0.000479961
-0.260614
-0.0278471
0.00102615
-0.268619
-0.197382
-0.201519
0.000963563
-0.000734484
-0.24936
-0.198506
-0.241783
-0.179103
-0.246781
-0.24332
0.00319393
-0.25126
-0.22414
-0.000456229
-0.257105
0.000130352
-0.262612
-0.262066
-0.260324
-0.0353407
-0.225056
-0.279891
-0.000810331
0.000376616
0.000470752
-0.247955
-0.251608
-0.245031
-0.270916
-0.221041
-0.00677993
0.00104448
-0.216298
-0.261871
-0.252426
-0.00862046
-0.14462
0.000452484
-0.254445
-0.266927
-0.257896
-0.260364
-0.26022
-0.253684
0.000322553
-0.245583
-0.254717
-0.274088
-0.233746
-0.257443
-0.0145336
-0.253258
-0.261686
-0.000866194
-0.244619
-0.238412
0.00260244
-0.251916
-0.00810642
-0.274977
-0.248038
-0.193994
-0.203924
-0.251404
-0.0152414
-0.201214
-0.253276
0.000649794
-0.222333
-0.000343757
-8.31e-05
-0.075302
0.00222423
-0.000549086
-0.0668131
0.000582698
0.000799094
0.00022103
-0.000608201
-0.210844
0.00134645
-0.0928194
-0.273361
-0.25967
4.81069e-05
-0.0168753
-0.000642434
-0.247693
-0.000393697
-0.254597
-0.233159
-0.0229303
-0.243025
-0.257471
-0.247339
-0.0646267
-0.0018792
-0.232454
-0.233225
-0.26015
0.000615818
0.00032418
-2.18932e-05
-0.0146749
-0.211301
-0.000457348
-0.000140015
-0.000182069
-0.260953
0.00033108
-0.0226581
-0.00699667
-0.00253856
-0.261349
-0.00715004
-0.0019341
0.000386742
-0.218117
-0.000181742
-0.249716
0.000673158
-0.0114544
0.00128312
-0.0333001
-0.261009
-0.263021
-0.253685
-0.272176
-0.0190625
-0.0228865
-0.243503
-0.000168433
-0.261638
-0.00523599
-0.000549915
-9.21767e-05
-0.147572
-0.238659
0.000470252
-0.160581
-0.274252
-0.254611
-0.25803
-0.225778
-0.00222555
-0.260621
-0.263859
0.000849798
-0.0522162
-0.234083
-0.159612
0.000123801
-0.25436
-5.73694e-05
-0.226005
-0.158346
-0.245938
0.000299115
-0.00376491
-0.244813
-0.00110338
-0.0444983
0.00371306
-0.219924
0.00052207
-0.254337
-0.000317818
-0.244151
0.00231657
0.00152014
0.00070546
-0.00908617
-0.233365
-0.249885
-0.00179254
0.000245819
-9.19827e-05
-0.000148636
-0.0238921
-0.000774958
-0.240491
-0.266594
-0.243354
0.00036482
-0.00110744
-0.255861
-0.248699
-0.240486
-0.264963
-0.235102
0.000418332
-0.229496
-0.234409
-0.000108185
-0.238832
-0.034372
-0.0607254
0.0013674
-0.225598
-0.000446446
-0.253343
0.000564161
-0.260486
-0.251166
-0.00149747
-0.242998
0.000918207
-0.261865
-0.214877
-0.00408032
-0.000337223
-0.244407
-0.260274
-0.00236509
-0.274822
-0.19767
-0.00157218
-0.263419
0.000770605
-0.26221
0.00139628
-0.00217941
-0.00416316
-0.232491
0.000164643
-0.25568
-0.030473
0.000655359
-0.000758561
0.000933356
0.000410738
-0.000396529
-0.261557
-0.143027
-0.0135659
-0.129331
-0.0129462
0.000430197
0.000495969
0.00230903
-0.232786
-0.131568
0.000487921
-0.00842022
-0.0214003
0.000634757
-0.258103
-0.0668279
0.000860186
-0.00315661
-0.253975
0.00020535
0.000318316
-0.257949
-0.227961
-0.00102767
0.000949533
-0.259006
-0.240228
-0.264467
-0.000147091
-0.00186979
-0.262005
-0.000980345
-0.000247381
-0.0012431
-0.204425
-0.189829
-0.253759
0.00100628
-0.235607
-0.243989
-0.252264
-0.242685
0.0010186
-0.0791242
0.00302733
-0.261332
0.000706853
-0.000996604
-0.0314428
-0.0661841
-0.00375358
-0.0202653
0.000502946
0.000461451
-0.00164897
-0.255396
-0.00395992
-0.240916
-0.272166
-0.178452
-0.000461307
-0.23168
-0.138763
-0.259806
-0.253965
-0.00801424
-0.0798212
0.00243439
-0.0692335
-0.219262
0.00115718
-0.258809
0.000727888
-0.00208144
0.00418943
0.000266965
-0.253541
-0.000459241
0.000766039
-0.250662
-0.251972
-0.00182851
-0.252768
-0.245255
-0.247166
-0.249582
-0.276361
-0.260123
0.00055767
-0.221777
-0.0731038
0.00066012
-0.0064151
0.00126631
0.000973961
1.90291e-05
-0.19535
-0.261067
-0.236039
0.00135772
-0.261306
0.0013808
0.00209123
0.000588913
-0.234102
-0.276798
-0.00769818
0.000428018
-0.258195
-0.259774
-0.271607
-0.241057
-0.147169
-0.205653
-0.00166736
0.00197522
0.00258218
-0.00137298
-0.25329
-0.000835341
-0.108618
-0.201455
-0.27667
-0.237988
0.000280826
0.000782744
-0.231104
-0.254052
-0.257692
-0.0252821
-0.069066
-0.263355
-0.25599
-0.23947
-0.262487
-0.234459
-0.263215
-1.36572e-05
-0.00404831
-0.00381983
-0.261444
0.000105688
-0.00109124
0.00010737
-0.190435
-0.0596201
-0.245639
-0.25853
-0.251025
-0.000642574
-0.208995
-0.227823
-0.273467
-0.0013059
-0.256667
-0.210402
-0.269592
-0.000280302
-0.212346
-0.24456
-0.274285
0.00068604
-0.0715946
-0.00518692
7.07705e-05
0.0015333
-0.266136
-0.0200526
-0.252845
-0.247684
-0.269776
0.000401576
-0.254658
0.000206717
-0.255223
-0.0111585
-0.182494
-0.000313395
0.000185968
-0.235448
-0.262002
0.00218841
-0.232399
-0.135446
-0.0179623
-0.0019664
0.0017277
-0.25383
-0.278267
-0.000483523
0.000522031
-0.000687348
-0.146657
0.000376786
-9.84649e-05
-0.0288078
-0.00914061
-0.247918
-0.00156995
-0.268099
0.000110554
-0.270862
-0.255015
-0.12454
-0.236374
-0.263885
0.000177968
-5.73259e-05
0.00149799
0.00065525
-0.278917
0.00109155
0.00183997
-0.23277
-0.262367
-0.251855
-0.164479
-0.273875
-0.00222218
0.00133167
0.00131141
-0.260461
-0.260175
-0.000341331
-0.25484
0.000303372
-0.246191
-0.244281
-0.268888
0.000830538
-0.235173
-0.00172595
0.000249863
-0.269429
-0.262994
-0.00108468
1.90513e-05
-0.257578
-0.248918
0.00135771
-0.00158561
-0.240791
-0.259193
0.000607367
0.000551697
-0.262317
0.000947482
-0.220292
0.000496341
-0.260377
-0.242829
0.000341308
-0.233295
-0.255947
-0.0732818
-0.239479
-0.238586
-0.183051
-0.234208
-0.0342436
-0.00119155
-0.00347878
3.61345e-05
0.000181686
-0.254786
-0.00372969
-0.258929
-0.240159
-0.00011253
0.000931527
0.000131666
0.000681122
0.000989206
-0.00171791
-0.00226022
-0.0012332
0.00114588
-0.00287132
0.00228199
-0.00283375
0.00371723
-0.000819126
-0.0382169
-0.0774358
-0.249423
-0.262416
-0.25621
-0.256426
-0.00182315
-0.266935
3.9603e-06
-0.27014
-0.00205358
-0.0208339
-0.226767
-0.251539
-0.00124649
0.000740218
0.00231454
-0.277108
-0.0736721
-0.255063
0.000502531
0.000255535
0.00229104
-0.189883
-0.255314
-0.0485783
-0.00254225
0.000814961
-0.00136177
-0.00190185
-0.129523
-0.0508108
-0.00249313
0.000555265
0.000547636
-0.00105163
-0.179002
-0.251289
-0.265679
-0.0720178
-0.265398
-0.179416
-0.261628
-0.0950162
-0.246353
-0.24941
-0.266111
-0.0013753
-0.256595
-0.207001
-0.257062
-0.267858
-0.240279
-0.00194048
-0.258169
-0.00153351
-0.266682
-0.240776
-0.260188
-0.00191267
-0.0150047
-0.23125
-0.255427
7.38474e-05
-0.263264
-0.251876
0.00132767
0.00215678
0.00099929
-0.000723646
-0.00346931
0.000376064
0.000632464
-0.251012
0.000613699
-0.223349
-0.234345
-0.260037
0.000153295
-0.246786
-0.241814
-0.275717
-0.00925474
-0.252034
0.000305701
-0.256534
-0.183943
-0.24176
-0.000699172
-0.00192196
-0.00226107
-0.265063
-0.255835
-0.0393562
0.00122756
-0.261493
-0.176398
0.000136068
-0.00150156
-0.00949731
-0.254396
-0.000704804
-0.000371479
-0.256227
-0.252796
0.0015085
-0.253213
-0.196843
-0.254185
-0.0182157
-0.273698
-0.255638
-0.00154787
-0.0484586
-0.260211
-0.25088
-0.00243764
-0.271453
-0.235182
-0.256079
-0.257102
-0.256641
-0.230528
-0.000233201
-0.25933
-0.000349558
-0.000722814
0.00184539
-0.0582725
0.000198871
-0.270362
-0.240158
-0.26099
-0.155351
-0.000338805
-0.240882
0.000371058
-0.0231736
-0.273509
-0.243565
0.000226783
-0.000163573
-0.233953
-0.00129177
-0.250943
0.000751694
-0.256878
0.000846775
-0.259043
-0.00237993
-0.254292
-0.0198493
-0.0469986
-0.247835
-0.2736
-0.244869
-1.63211e-05
-0.271152
-0.135768
-0.255711
-0.227224
-0.0365924
-0.0961131
-0.0616068
0.000438247
-0.184146
-0.214005
-0.0178062
-0.227419
-0.251024
-0.00244065
-0.253404
-0.00179326
-0.227525
0.000642634
0.000286026
8.05825e-05
-0.0493903
-0.260282
-0.260855
-0.0161095
-0.102478
-0.00094201
4.57745e-05
-0.0023293
-0.000453087
0.000162315
0.000657426
0.00117059
-0.000734601
0.00165345
-0.238943
-0.237514
-0.00307839
-0.00421384
-0.234912
-0.260292
-0.0548879
0.00198628
-0.00183956
-0.262809
-0.0400495
0.000966455
0.000343091
-0.264779
-0.0310162
-0.0014227
-0.00114629
-0.0671743
-0.2636
-0.243035
-0.0538391
-0.270869
-0.263665
0.000979387
-0.229338
-0.25893
0.00047389
-0.249886
-0.00722977
0.000452822
-0.000579133
-0.266064
-0.0018116
-0.241865
-0.208702
1.45887e-05
-0.032442
-0.270876
-0.00027277
-0.254464
0.000539478
-0.225419
-0.239196
0.000888123
-0.255387
-0.244326
0.000574854
-0.000352335
-0.252988
0.000533066
-0.243363
-0.267393
-0.260203
-0.00993085
-0.00519315
-0.00202113
-0.257652
-0.00030346
0.00254348
-0.00122021
-0.057115
0.000759951
0.000392772
-0.00586757
7.87564e-05
-0.235421
-0.258978
-0.0293495
-0.000133608
-0.239487
0.0020573
-0.000910204
-0.00661517
-0.235214
0.000999353
0.000140876
-0.25565
0.00241953
0.00145404
-0.000368551
-0.216562
0.000592718
-0.13812
-0.260431
0.00141841
-0.260447
-0.0270593
0.000538502
-0.258146
-0.247643
-0.266571
0.0011179
-0.100136
-0.00316832
-0.269564
-0.249156
-0.000605238
-0.0805426
0.000139129
-0.260327
0.000546303
6.12499e-06
-0.00074285
0.00177745
-0.00155738
-0.000116621
-0.244214
-0.00501887
0.000510794
-0.000608085
-0.00023954
-0.259231
-0.241012
-0.281322
-0.0111077
0.000540892
-0.2542
0.00279894
-0.000258139
-0.00014704
0.000270396
0.000885323
-0.0454876
9.88135e-06
-5.18745e-05
-0.111661
-0.259705
-0.263754
-0.28137
-0.229565
-0.00153479
-0.245723
-0.262374
-0.0702826
-0.242412
-0.275688
-0.24357
-0.159324
-0.0031341
-0.252661
-0.000762638
-0.249635
-0.000559298
-0.160013
0.00196091
-0.000981269
-0.249463
-0.222916
-0.238377
-0.000449969
-0.0341981
-0.0380922
-0.0446856
-7.8912e-05
0.00061439
-0.0198322
-0.258854
-0.0105832
-0.256334
-0.0243839
-0.00165709
-0.256205
-0.00133343
-0.00207453
-0.0359604
-0.000696172
-0.199149
-0.276068
0.000422779
0.00169145
-0.23383
-0.00947753