/*--------------------------------*- C++ -*----------------------------------*\
  =========                 |
  \\      /  F ield         | OpenFOAM: The Open Source CFD Toolbox
   \\    /   O peration     | Website:  https://openfoam.org
    \\  /    A nd           | Version:  10
     \\/     M anipulation  |
\*---------------------------------------------------------------------------*/
FoamFile
{
    format      ascii;
    class       surfaceScalarField;
    location    "800";
    object      phi;
}
// * * * * * * * * * * * * * * * * * * * * * * * * * * * * * * * * * * * * * //

dimensions      [0 3 -1 0 0 0 0];

internalField   nonuniform List<scalar> 
38623
(
0.217436
-0.214404
0.0790752
-0.0821075
-0.0598627
0.0771169
0.123637
-0.140891
-0.00691946
0.0134329
0.0333278
-0.0398412
0.00428712
-0.00234877
-0.0224977
0.0205593
0.0154032
0.027119
-0.0336626
-0.00885961
-0.126644
-0.254921
0.238932
0.142633
0.0848569
-0.0710519
0.0821516
-0.0959565
-0.00865618
0.00853483
-0.00640514
0.00652649
0.0198881
0.0203384
-0.244162
-0.0361572
0.0796429
-0.320943
0.277457
0.110684
0.125171
-0.112033
-0.123823
-0.220644
0.195212
-0.00543054
0.0308623
0.461932
-0.0463449
-0.468723
0.0531359
-0.230026
0.209062
-0.0104584
0.0314224
0.0377289
0.046671
-0.0522952
-0.0321046
0.0441843
-0.293695
-0.0479066
0.297418
-0.0149592
0.387402
-0.000269591
-0.372174
-0.00875871
0.265968
-0.00930656
-0.247903
0.00615449
-0.0272297
0.411928
-0.390853
0.403489
-0.283258
0.240011
-0.360242
0.183316
0.138473
-0.0437948
-0.277994
0.109251
0.0811066
-0.0796728
0.317381
-0.271801
-0.00153934
-0.0440405
-0.221705
0.291832
-0.265874
0.195746
0.0431143
0.252384
-0.0439894
-0.251508
-0.0375392
0.577009
-0.550057
0.0105872
0.0304326
-0.17848
-0.0554962
0.203544
0.223608
-0.179195
-0.492572
0.448159
-0.00920876
-0.000770541
0.00140824
0.00857106
-0.274038
0.293421
0.384107
-0.0149488
-0.0205994
0.019555
0.0159931
0.00565646
-0.00154713
0.000776733
-0.00488606
0.0287274
-0.0321017
-0.0332472
0.0366215
0.293944
-0.0246287
-0.278074
-0.0103466
-0.0111304
-0.237747
0.259224
-0.342081
-0.173652
0.146293
0.369439
-0.000610551
0.000144678
-0.00721013
0.007676
0.00533611
-0.236327
-0.148082
0.167152
0.0033906
-0.0224604
-0.0568143
0.0720711
0.319161
-0.334418
0.0664013
0.41313
-0.429874
-0.0496575
0.272261
0.18501
-0.254772
-0.2025
0.331533
-0.185482
0.33292
-0.478972
-0.417324
0.204283
0.338004
-0.124963
0.599668
0.24168
-0.514667
-0.326681
-0.0301239
0.0738559
-0.430344
0.386612
-0.013476
0.0265873
-0.00140201
-0.0117094
-0.261318
0.193706
0.155434
-0.0878225
-0.000911514
0.00187791
0.00100803
-0.00197442
0.00754133
-0.00050254
-0.00769203
0.000653246
-0.00498833
-0.00136465
0.00147608
0.0048769
-0.0109304
0.0289428
-0.0232633
0.00525087
-0.0018837
0.000707259
-0.00172351
0.00289995
-0.382431
-0.109447
0.295411
0.196467
-0.00101691
0.000441712
0.00623166
-0.0208667
-0.397004
0.402911
0.0399979
-0.0232155
-0.0551107
0.0383282
-0.00437388
-0.00811978
0.00855696
0.0039367
-0.141463
0.185762
0.139018
0.00231396
-0.00736569
0.00571662
-0.000664893
-0.00918524
0.00362231
-0.00320441
0.00876733
-0.34268
-0.10994
0.0352959
-0.337833
0.32659
0.0841497
-0.0729071
-0.0057379
-0.00745925
0.0087808
0.00441636
-0.247414
-0.322978
0.348687
-0.50202
0.353099
-0.230369
0.37929
-0.168535
0.144216
-0.0251147
0.0494335
-0.536963
0.422982
0.175199
-0.0612184
0.121774
0.539506
-0.0616114
-0.390515
-0.0651079
0.0645391
0.391084
0.0088926
-0.00309738
-0.00897823
0.00318301
0.0145561
-0.00769173
-0.0137839
-0.0503332
-0.0188814
-0.516127
0.585342
0.060803
-0.0613611
0.038287
0.401665
-0.38042
-0.268658
0.0411709
-0.0611762
0.0589983
-0.038993
0.0220055
-0.182041
0.176096
-0.0160603
0.114142
0.190201
-0.194874
-0.10947
-0.0117916
0.00535592
-0.00522595
0.0116616
0.0375759
-0.0296403
0.342784
-0.35072
-0.110096
0.225212
-0.20756
0.0924445
0.0446999
-0.0561014
-0.0884276
0.0998292
0.0713748
-0.0912397
-0.0106166
0.00848307
-0.000424592
0.00255808
-0.0180415
0.0427028
-0.0251478
0.000486454
-0.236574
0.247387
-0.0219439
-0.0581879
0.0923223
-0.0993101
0.0651756
-0.00142406
0.000358993
0.000308387
0.000756683
-0.289856
-0.102558
0.136599
0.255814
0.362765
-0.365506
0.0403172
-0.00690191
-0.000318765
0.00658976
0.000630913
-0.423995
0.0720857
0.402822
-0.0509127
0.00394592
-0.00744134
-0.00224249
-0.334171
-0.188012
0.202048
0.320135
-0.00687158
-0.00327305
0.00528819
0.00485644
-0.00742992
0.000107166
-5.17917e-05
0.00737454
0.495556
-0.113062
-0.393024
0.0105301
0.0756332
-0.103777
-0.233174
-0.28002
-0.0294928
0.0674378
0.242075
0.00742954
-0.000794444
0.00876809
0.348568
0.0640427
-0.0959525
-0.316658
-0.0385918
-0.103129
-0.0268143
-0.0582595
0.0223874
-0.125013
0.160885
-0.00673228
7.76362e-06
0.00672543
-9.23674e-07
0.00129191
0.00749146
-0.00829187
-0.000491509
4.00109e-05
0.00199083
-0.0126474
0.272085
-0.107814
-0.290916
0.225966
0.417378
-0.144782
0.149703
-0.0435126
0.355332
-0.317085
-0.127596
0.089349
-0.114002
0.154939
0.0908073
-0.131745
-0.27507
0.0798329
0.200573
0.0569943
-0.0405404
-0.0344954
-0.00530096
0.288096
-0.00072686
-0.282068
-0.140022
-0.332001
0.129943
-0.30732
-0.0538965
0.0586838
0.302533
-0.183679
0.370501
-0.553759
0.366936
0.0541754
-0.283378
-0.0561728
0.285375
-0.000154721
0.000319312
-0.00937335
0.00533618
-0.00772486
-0.00423234
0.00662101
-0.120271
0.0234469
0.210967
-0.000177984
0.00580096
0.000228407
-0.00585138
-0.0420948
-0.38276
0.0403173
0.384537
-0.00542313
0.00383152
0.00691369
-0.00532207
-0.0926779
0.0853005
-0.0957518
-0.0792238
-0.67275
0.552469
0.199505
-0.00893898
0.00243801
-0.00268427
0.00795018
-0.000131726
-0.000277129
-0.00113805
-0.0101118
-0.00468695
0.0159368
0.0169264
-0.0107777
-0.0155357
0.00938704
0.00811414
0.00906402
-0.00680102
-0.0103771
0.0289581
0.164037
-0.149228
-0.0437669
0.133253
-0.000699872
-0.0186815
-0.113872
-0.212277
0.201895
0.0568408
-0.0464589
0.4215
0.0876951
-0.197228
-0.311967
-0.0985801
0.216088
-0.175767
8.91292e-05
0.00637279
-0.00644396
-1.79561e-05
0.0423265
0.174891
0.0515431
-0.120395
-0.169535
0.238387
-0.109431
0.15155
0.00864751
-0.00868324
-0.000118981
0.167031
-0.183321
-0.256995
0.273285
-0.142107
-0.240808
0.219686
0.163229
0.0819641
0.302606
-0.113537
-0.271033
0.363473
0.0136169
-0.0383864
-0.338703
0.475448
-0.194588
0.0744717
0.288386
-0.0543631
-0.283444
0.0494211
-0.0678935
0.0391565
-0.0192815
0.0480185
-0.00351055
0.00267784
0.00675015
-0.00591744
0.0238955
-0.372146
0.389229
-0.0409791
0.0468643
-0.00314932
-0.0393416
-0.0043734
0.27011
-0.119812
-0.462689
0.312392
0.0699097
-0.0890345
-0.056961
0.0760857
-0.0504696
0.433271
0.147016
-0.529817
0.0348224
-0.0328797
0.0217038
-0.0236466
-0.0643625
0.0491323
0.29341
-0.27818
0.0154454
0.0809423
-0.0740002
-0.275307
0.15739
0.235286
-0.117369
-0.00995105
0.0108354
-0.00625945
0.00537514
0.0023071
0.010314
-0.00847071
-0.0041504
0.0555159
0.38065
-0.382467
-0.053699
0.0808638
0.0292862
-0.0447675
-0.0653826
0.00250732
-0.0094133
-0.00133174
0.00823772
-0.162937
0.164914
0.462126
-2.57921e-05
-0.411378
-0.050722
0.000197483
0.367425
-0.343726
-0.189539
0.188757
-0.0673217
0.0681043
-0.00624038
-0.00169148
0.007062
0.000869854
-0.23013
0.404551
0.206655
-0.381075
0.281276
0.12895
-0.243195
-0.177719
0.0314034
0.18438
-0.0380646
0.0193667
0.00485034
-0.0199299
-0.234551
-0.314046
0.225619
0.00210475
-0.00709241
-0.000435483
0.285847
-0.547246
0.337378
-0.0759789
-0.0134624
0.000212779
0.0104355
0.00281414
0.335066
0.0524233
-0.335525
-0.0519648
0.0522326
0.245353
-0.0547968
-0.242789
-0.264815
-0.0291382
0.276004
0.017949
-0.202581
0.170938
-0.128442
0.160085
0.00898103
0.00639322
-0.0121795
-0.00319479
0.0210512
-0.00447579
-0.00759447
0.0757834
0.0355047
-0.0701171
-0.0972818
-0.132511
0.0775089
0.152284
-0.0424261
0.0911442
-0.399705
0.350987
0.42116
-0.408939
-0.0330877
-0.195201
0.0823989
-0.0046191
0.00506741
0.00803476
-0.00742409
-0.000788573
0.00563556
0.00257711
0.287299
-0.198358
-0.00270148
0.00454459
0.0069046
-0.0087477
-0.392646
0.0722339
0.041477
0.278935
-0.301836
0.361621
-0.1166
-0.295573
0.142884
-0.181343
0.334032
-0.0521777
-0.32447
0.0598914
0.316756
0.153074
-0.203857
-0.294969
0.345752
0.000373853
2.0378e-06
-0.00749205
0.00711615
-0.000539474
0.00712689
-0.00928889
0.00210458
-0.00625086
-0.00053042
0.0046767
0.162688
-0.132327
-0.144363
0.320994
-0.0247024
-0.296094
-0.262078
-0.326318
0.279366
0.309031
-0.00444772
0.0067736
-0.00583644
0.0134241
-0.124845
-0.0333636
0.144785
0.00952961
-0.00710783
-0.011078
0.00275927
-0.00958789
0.00933594
-0.0302495
0.0162633
0.0230747
-0.00908861
-0.0649143
-0.197332
0.0805705
0.181676
0.194422
-0.00373346
-0.0600614
-0.130627
-0.095052
0.234428
0.0660085
-0.205384
0.308723
-0.0380722
-0.300291
-0.00805199
-0.000743383
0.00818482
0.356068
-0.345229
-0.0532647
-0.444649
0.247737
-0.0332188
-0.00318492
-0.00120511
0.00250632
-0.00451717
0.00113659
0.00930026
-0.00591967
0.113161
-0.00980515
-0.0899313
0.0394426
-0.300159
-0.000187025
0.00726825
-0.00123186
-0.00584937
-0.0119976
-0.00960678
0.0076076
0.0139967
0.0810298
-0.0529526
-0.513825
0.485748
-0.039651
0.0392778
-0.00698445
0.000336195
6.46644e-05
0.00658359
0.315417
-0.0757618
-0.304018
-0.0994243
0.309832
0.0183281
0.0300112
-0.0138451
-0.0344942
-0.000157959
0.00704238
-0.00738697
-0.310823
0.0712509
-0.244346
0.063727
-0.0045489
0.185167
0.402937
0.0485181
-0.401833
-0.0496219
-0.200754
0.239638
-0.282119
0.243235
-0.0024286
9.30242e-05
-0.00139327
-0.0625061
-0.211171
-0.579337
0.601606
-0.0598079
0.0508998
-0.0402478
0.016467
0.0108724
0.000365932
-0.00677882
-0.00445948
-0.248229
-0.366743
0.0282255
-0.00851872
0.00254615
-0.0222529
0.0616945
-0.470245
0.524859
-0.116308
-0.0116698
-0.00669202
0.0112759
0.00708589
-0.00142264
0.00236649
0.000934058
-0.308391
0.0444488
-0.052417
0.316359
0.00127039
-0.0122502
0.0110199
0.0123689
-7.79232e-05
0.0386089
-0.00111376
-0.00614352
-0.121952
-0.321176
0.105295
-0.0871932
0.254776
0.104502
0.0376104
-0.492153
-0.0601238
-0.0112541
0.00252879
-0.000688043
0.0787029
0.0229488
-0.0207879
0.121537
0.460733
-0.430211
-0.152058
0.0765453
-0.225864
0.310885
-0.161566
-0.00501638
-0.00127001
0.00173598
0.0045504
-0.487769
0.487734
-0.0466376
0.0466729
0.100778
-0.0134736
-0.0580184
0.00470423
-0.00767572
0.00185773
0.00670466
-0.0058162
0.00441354
-0.00068301
-0.00678399
0.00305346
-0.0906191
-0.339059
0.0915802
0.338098
-0.304055
-0.213848
0.000662914
0.000704114
-0.0534873
0.0829676
-0.309389
0.279909
0.000611267
-0.00859715
-0.000953104
-0.114037
0.171694
0.0327665
0.262805
-0.246439
0.0565422
-0.36265
0.378179
-0.0100054
-0.00908805
0.00563103
0.00879848
0.00549613
-0.00927014
-0.00502447
-0.0338556
0.00671588
0.00894218
0.0181976
0.00891991
0.0169568
0.179321
-0.254425
-0.119769
0.00535111
0.0188776
-0.00486206
0.000411785
0.000673789
0.00273661
-0.00382218
0.0940204
-0.221485
0.292815
-0.16535
0.110167
-0.151871
-0.247176
0.0393606
0.000459265
0.00728489
-0.00740632
-0.000337835
0.0576596
-0.0841327
-0.28435
0.00663111
0.000846017
-0.000715689
-0.00676144
0.274583
-0.317399
0.0869359
-0.0441195
0.00768197
-0.0150403
0.00934912
0.0838498
-0.0500567
-0.278139
8.02152e-05
-0.000446994
-0.00462155
-0.0713927
-0.33186
0.0851491
0.318104
0.237272
0.0387045
-0.236598
-0.0393785
0.0071941
0.0053871
-0.00297725
-0.00960395
0.00592043
-0.00361361
-0.00556573
0.00325891
0.0907197
-0.363952
0.551674
-0.278442
0.00827164
-0.00877475
0.00326238
-0.0487588
0.0474479
0.0361333
0.00319923
-0.0142405
-0.00265102
-0.00198864
0.00321702
0.00435453
-0.00836182
-0.00345197
0.00328218
-0.00460687
0.00573823
-0.0108336
0.00377452
-0.0119496
-0.22577
0.0057112
-0.00518853
0.00459584
-0.00511852
-0.358344
0.30819
0.0124242
-0.00855788
-0.24044
0.00901419
0.000465644
-0.00900344
-0.000476392
0.00470879
-0.00767839
-0.00918177
0.0121514
-0.0302432
-0.0321054
0.0175638
0.0447849
0.00948293
0.00170876
-0.0272483
0.0200958
-0.0141619
0.0213145
-0.12287
-0.394188
-0.0207981
-0.014969
0.00716803
-0.00155769
0.00317046
-0.00413778
0.376927
0.0525658
-0.0809257
-8.63201e-07
-0.00689445
0.00172914
-0.00348396
0.0551278
0.0478812
-0.0330993
-0.396838
0.0635305
-0.060787
0.394094
0.136694
-0.201705
-0.112708
-0.0111534
-0.00136853
0.00796857
0.00455337
0.0083593
-0.000482335
0.00606217
0.00548646
0.101428
-0.04291
-0.080339
0.0218206
-0.00335086
0.0063636
-0.0373984
0.00703478
0.509869
-0.479505
0.0023429
-0.00863223
0.00662552
-0.00179641
0.000806429
-0.00185502
-0.00505243
0.00107049
0.00583696
-0.367791
-0.28594
0.209083
0.0637535
-0.0338094
-0.229092
0.0208365
0.214113
-0.00585693
0.0126781
0.012569
-0.0141927
-0.0110544
0.00131215
-0.00613081
0.0217451
0.0042857
0.00702592
-0.00489785
-0.00641377
0.209575
-0.0969249
-0.207702
-0.0804952
-0.0213426
0.0582985
0.0435393
0.00708096
-0.215959
-0.174277
0.383155
-0.00773029
0.00128765
-0.285476
-0.0159447
0.247934
0.00737504
0.00422377
-0.00731311
0.00344566
-0.0233972
-0.0102795
-0.00223092
0.00044255
0.0120679
-0.163771
-0.259449
0.0661199
0.3571
-0.274104
0.316671
0.154201
-0.196768
-0.00914888
0.00886483
-0.00972131
0.00537134
0.0147357
-0.0152567
0.00653402
-0.103281
0.0807865
0.587674
-0.607883
-0.0590151
0.489196
-0.65581
0.225614
-0.059
-0.00154296
-0.00724271
0.00142456
0.00736112
-0.105016
-0.175839
0.205841
0.0750143
-0.000463795
-0.0082624
-0.0323108
0.0203957
0.0113756
-0.00535752
-0.0162975
-0.00468623
0.00540074
0.0112947
-0.0120092
0.00714585
-0.000206594
-0.00747873
-0.000215447
-0.00603876
0.000387023
-0.00085365
0.00283312
0.0499374
0.247379
0.0643045
-0.186959
0.30483
0.227551
-0.345422
0.368404
-0.604637
0.35537
-0.119138
-0.0630182
0.052119
-0.0134866
0.0103831
0.0114919
0.141783
-0.389334
0.234147
0.0134049
-0.0486195
0.0286145
0.335116
-0.0145832
-0.313452
0.00289851
-0.00135928
-0.00896333
-0.210494
0.0659827
-0.0600155
0.204527
-0.003481
0.00335502
0.00715191
-0.270697
0.214142
-0.277616
6.76811e-06
0.0433684
0.47264
0.0610008
0.156915
-0.2289
0.00651894
-0.00518525
-0.00210011
0.00340004
0.00388532
-0.0480817
-0.144087
0.162907
0.0292614
-0.393094
0.0013785
-0.00577203
-0.00173059
-0.00374349
-0.00567934
0.00501422
-0.0214985
0.298762
-0.204444
-0.0154364
0.00439597
0.00354803
0.00749241
0.0636447
-0.0605079
0.0606167
-0.0228938
-0.301355
0.0148596
0.212705
-0.404593
0.269513
-0.0776254
0.479233
0.0696819
-0.0597191
0.0676505
-0.0593141
0.138882
-0.205757
0.252533
0.192861
0.00629693
0.00792382
0.260791
0.0523311
-0.0525185
-0.260604
-0.00367445
-0.0113169
0.0148391
0.173628
-0.136924
-0.0388904
0.240234
0.00209066
0.00636928
0.00669138
0.00117393
-0.0028963
0.00959813
-0.00646306
0.000255939
-0.00339101
0.0142088
0.222697
-0.20414
-0.557729
-0.446876
0.122763
0.0135611
-0.321931
-0.00654727
0.00294782
0.0237994
0.0214379
-0.0318086
-0.0134287
0.00742047
0.00366711
-0.00281594
0.00840601
-0.00694913
0.00391444
0.00626343
0.0265095
-0.0392568
0.00648395
-0.0444298
0.071239
0.0489742
-0.16697
-0.0795804
0.134819
0.111731
0.00469269
-0.00753503
-0.000152089
-0.00969748
-0.00297881
0.00390386
-0.00864992
-0.0468617
0.704947
-0.059972
0.110179
-0.0155666
-0.0591076
-0.00441141
0.00566726
0.0061192
0.0724159
0.0788303
-0.0577116
-0.0935345
-0.0144102
-0.00780593
0.0112858
0.00429583
-0.0321885
-0.00596293
0.139856
0.0574561
-0.119804
-0.219636
-0.0373337
0.067866
0.189104
-0.0576476
0.255335
0.0486888
-0.246376
-0.00335269
0.00560241
0.00701015
-0.00925988
0.3105
-0.202631
0.197418
-0.305287
-0.218035
-0.0714885
0.129983
0.15954
0.0118827
-0.00903501
0.00906649
-0.00934727
0.000892034
-0.237452
0.173105
-0.00541188
0.0112548
0.0031267
-0.00896959
-0.0182944
-0.00546802
0.00881361
0.00169658
0.0063286
-0.000604638
0.00921489
-0.177604
-0.201498
0.381776
-0.334165
-0.0280497
-0.0195613
-0.0051726
-0.0023078
0.00576336
0.00171703
-0.134699
0.176873
-0.205946
-0.333452
0.354076
-0.179805
0.159181
-0.526779
-0.061642
0.500803
0.0876181
-0.113314
0.167198
-0.101966
-0.0340917
0.0257711
0.429481
0.00227142
0.00861975
-0.00438742
0.00244649
-0.0016727
0.051506
-0.0369375
-0.0022771
0.0010401
-0.00211568
-0.00333347
-0.00529962
0.00852067
-0.0131363
0.0153342
-0.00982924
0.00530593
-0.462912
-0.197183
0.292304
0.0118866
-0.0381553
-0.00452093
0.0307897
-0.318879
-0.042865
0.00465036
0.00725657
-0.00446195
0.027094
0.484368
-0.561931
-0.00111218
-0.00250784
-0.00179185
0.188767
-0.0736371
-0.220146
-0.154296
0.32228
-0.00519947
0.00837813
0.00241132
0.0061661
0.00784538
-0.103733
0.00406951
-0.00935938
-0.266047
-0.378462
0.0751039
0.145471
-0.0768169
-0.143758
0.0197885
0.00922721
7.61447e-06
-0.000126818
-0.00694219
0.00706139
-0.0100131
0.0159085
-0.00672423
0.000828883
-0.3197
-0.00913648
0.0594741
0.269363
-0.055539
0.19583
-0.249761
0.267907
-0.306928
0.00162452
-0.61915
0.0696498
-0.0583822
-0.0106395
-0.0355164
-0.209255
-0.176134
0.05805
0.32734
-0.0671205
0.196999
-0.194793
0.0202771
-0.0214586
0.0226194
0.00852569
-0.00650345
0.0047403
0.00630775
0.0105068
0.03809
-0.0331514
0.533339
-0.562832
-0.273417
0.30291
-0.00631216
0.139695
-0.428605
0.512517
-0.0139874
-0.331284
0.344325
0.000947064
-0.0241867
0.025622
-0.0204624
0.019027
0.0503291
0.000623363
-0.0390659
-0.0160554
0.00587892
-0.0106216
-0.139882
0.0318475
0.15271
-0.0446755
0.215344
-0.0592118
0.0441955
-0.200328
-0.0737893
0.0495092
0.0634365
-0.199007
-0.117925
0.0100138
-0.262637
0.0555132
0.197109
0.0419412
0.0200807
-0.0266072
-0.0354147
0.000646176
-0.00160058
0.00765906
-0.0466272
0.364971
0.0185512
0.00339057
-0.0117453
-0.0101965
-0.0065493
0.00505617
-0.00463326
-0.0426085
0.00908642
0.0096747
0.00540817
-0.00555325
0.0213264
-0.0257435
-0.0153369
0.0197539
-0.113403
-0.538137
0.12476
0.0116722
-0.0105168
0.00463166
-0.00578713
0.411716
-0.161292
0.127482
0.222577
0.0824972
0.0604604
-0.0773627
-0.0655949
-0.000306262
-0.00856248
-0.000464087
0.00933283
8.20001e-05
-0.00108642
0.00775456
0.0203427
-0.0232029
0.0090835
-0.00912111
0.00797037
-0.00793276
-0.0132224
-0.00204326
0.00301545
0.0790774
0.164268
-0.091061
-0.440601
-0.0436236
0.0311677
0.453057
-0.487048
0.0371568
0.00750178
-0.0209901
-0.0173542
0.0233753
-0.00303755
0.00411469
-0.000208282
-0.000114144
-0.00747369
0.00779611
-0.0167683
0.319098
-0.747064
0.185775
-0.0578609
0.0355237
0.0191013
0.0323623
0.0066306
-0.0102654
0.0245911
-0.0212283
0.0170328
-0.153851
-0.309809
0.0449405
0.418719
0.000116854
-0.00508128
0.000447261
0.291443
0.207968
-0.359716
-0.0998339
0.0748131
0.00481222
0.00366417
-0.632655
-0.0568497
-0.0575595
0.117874
-0.0241229
-0.0929047
-0.00084691
0.0371717
0.0865552
-0.0049653
-0.00672669
-0.0218675
0.325275
-0.090702
0.00665699
0.00245838
0.000482759
0.00384226
-0.0101554
0.0185925
0.00979214
-0.0171299
0.0079792
-0.0567033
0.0167131
0.0320111
0.263016
0.0213987
-0.243828
-0.0405872
-0.392636
0.379776
0.025859
-0.0129989
-0.0413235
-0.43337
-0.0776571
-0.368305
0.179915
-0.00655409
0.0131051
-0.0161982
0.00964719
-0.0134177
-0.00503066
-0.00682816
-0.3654
0.264278
0.0568631
-0.0465581
-0.0413732
-0.0458387
-0.355758
-0.0603136
0.344679
0.296906
-0.0492609
0.0452013
-0.132591
-0.0524921
0.580271
-0.0785957
-0.170142
-0.337164
0.249143
-0.331462
0.283241
0.289207
-0.240986
-0.0333739
0.131968
0.334676
-0.00357993
-0.00412816
0.00105183
0.00665625
-0.36304
-0.171117
0.503104
0.0310539
-0.00571801
-0.00084489
0.0114546
-0.00489166
0.0726038
-0.124885
-0.0491956
0.101477
-0.27378
0.180536
0.398074
0.00774312
-0.00229553
-0.265421
-0.026133
-0.363377
0.102294
0.287216
0.00844512
0.00130229
-0.0193288
-0.00385686
0.0141506
0.0121203
-0.012773
-0.00936041
-0.385301
-0.157674
0.0800621
0.235368
-0.0725485
0.00106396
-0.000218838
0.00584626
0.00581262
-0.00224149
-0.541406
0.0042211
0.00724783
-0.00857042
0.0412182
-0.482652
-0.0463356
-0.596455
0.540179
-0.0571257
0.177414
0.0254895
-0.0398646
-0.394564
0.150292
0.0222502
-0.341743
-0.046736
0.366229
0.00877884
0.00812115
-0.00487093
0.00632664
-0.00493672
-0.0170205
0.00396594
0.0184553
-0.00725307
-0.000368691
-0.0123957
0.0132712
-0.00224736
-0.546276
0.60426
-0.0557374
0.0131011
-0.363803
0.0670088
-0.0589636
0.0299728
0.034309
0.00428371
-0.155714
0.286393
0.0968714
0.0396205
0.476748
-0.477118
-0.0392504
0.548091
-0.523244
-0.000706613
-0.00525193
-0.230899
0.2261
-0.230868
0.255825
0.0131418
-0.0380992
-0.00418767
0.0276007
0.0234512
-0.0284199
0.259949
-0.00460067
-0.226929
0.0652001
0.153734
-0.00831068
-0.000207328
0.00846622
0.0438197
-0.260292
-0.563883
-0.0333072
-0.0586194
-0.0971929
0.0232361
0.283046
-0.0153273
-0.00175045
-0.0570272
0.169679
-0.172779
0.0601271
-0.0245849
0.0218469
-0.293296
0.203869
0.00968389
-0.00724684
0.00127578
-0.0037128
-0.0490445
0.0572653
0.00866896
0.217636
0.0360156
-0.210538
-0.0043799
-0.00891239
0.00620053
0.0456102
0.0764183
0.070715
0.299084
-0.0763882
0.0276891
0.00718523
-0.0145317
0.0102953
-0.0628309
0.124952
0.0317901
-0.025263
0.0454057
-0.0519329
0.0118822
-0.00676016
-0.00458533
0.00479681
0.00407223
0.109995
-0.0287997
0.091598
-0.172793
-0.0158801
0.0361149
0.0073929
-0.0276277
0.0890477
-0.373382
0.397225
-0.307101
0.244553
-0.424015
-0.0044189
0.0144735
-0.0105181
0.0067497
0.00607548
0.0206804
-0.222152
-0.0665787
0.188284
0.100446
0.0853707
-0.0912391
-0.0277941
0.170785
-0.0754141
0.0705304
-0.165901
0.386144
-0.397663
0.0609147
-0.0493955
0.252113
-0.136667
0.184913
-0.300359
0.416117
-0.422444
0.0563481
-0.0500211
0.453425
-0.375328
-0.0558471
0.45275
-0.020942
-0.338908
-0.0467391
0.507184
-0.0352507
0.00046416
0.0301534
-0.167448
-0.376847
0.342531
0.201764
-0.0250849
-0.0416042
-0.101406
0.15369
-0.0260939
-0.32095
-0.516824
0.0259349
-0.0553868
0.178137
-0.0310295
-0.132899
-0.0231779
0.0147931
-0.00239304
0.0724614
0.246738
-0.0584082
-0.371013
0.0272801
-0.042063
0.475306
-0.460523
0.209448
-0.0905915
0.0139989
-0.0313066
-0.186195
0.203503
-0.0414389
0.278743
-0.265724
-0.0466928
0.488082
-0.0388226
0.227117
0.0293423
0.0196181
-0.0157843
-0.328377
0.316598
-0.128243
-0.244728
0.0781617
0.243112
-0.0159224
0.028367
-0.0283246
-0.000949336
-0.0137413
-0.00906766
0.0278717
0.0165509
-0.0258301
0.00259352
-0.00343481
-0.00219627
0.258323
-0.0447614
0.00552831
-0.00744065
0.0309839
-0.0412489
0.184277
-0.174012
-0.373843
0.191868
0.254436
0.380172
-0.0173776
0.000326315
-0.363121
0.322241
0.0351421
-0.0486603
-0.0484117
0.356438
-0.0444732
0.0390593
-0.351025
-0.110429
0.770897
-0.0562081
0.406729
0.0595238
-0.0501362
-0.0015339
0.0137395
0.0264033
-0.015016
-0.0320424
0.0255999
0.0140498
-0.00246698
-0.213477
0.201894
0.337593
0.171003
-0.055171
0.215885
-0.181659
0.0220606
-0.0562865
0.247059
-0.198407
0.162983
-0.198315
0.0858902
-0.0505587
0.168228
0.117717
-0.0700609
0.0703257
-0.00245552
0.0141198
-0.0819899
0.175128
-0.0764844
0.0721417
0.0386279
-0.0165517
0.0140387
0.240757
0.107937
-0.101635
0.36092
-0.0164888
0.00713022
-0.351562
0.154368
-0.141957
0.122472
-0.134882
0.224801
-0.238226
-0.0665234
0.0799488
0.30385
-0.520565
-0.0930938
0.172866
-0.0693381
0.0962049
-0.199733
0.360506
0.0227617
-0.0223473
0.173587
-0.171389
0.0338175
0.0201403
0.415975
-0.41148
-0.0246356
0.280889
-0.31731
0.0150432
0.0213777
-0.0422708
0.193088
-0.136818
-0.0405133
0.236323
0.227411
-0.207178
0.14455
-0.164783
0.271143
-0.186018
0.202174
0.052801
-0.0598484
0.170031
0.00719215
0.146238
-0.137487
-0.0159427
-0.0235006
0.123888
-0.109943
0.00955563
0.0934418
-0.04922
-0.0703578
0.0261362
0.0587904
0.0157705
-0.00423515
0.165236
-0.0724217
0.0355805
-0.0289131
0.0319606
0.0776911
0.217792
-0.120356
0.170401
-0.148361
0.204019
-0.0553059
0.076088
0.239193
0.101145
-0.0995819
0.0906197
-0.0524529
0.0138016
-0.02381
0.319962
-0.309953
0.3335
-0.0240848
0.0177593
-0.327175
0.238644
0.0295576
0.0126869
0.245709
-0.124264
0.130668
0.298323
-0.207578
-0.0632989
0.064787
-0.409215
0.407727
0.387794
-0.376889
-0.00836466
-0.00254059
0.0272236
0.0230624
0.28939
-0.496131
0.234209
0.248853
-0.211919
0.388025
0.01658
-0.0172024
0.235775
0.146137
-0.136203
-0.326003
-0.123932
0.159019
-0.0929082
0.0840604
0.173116
-0.189651
-0.277458
0.202581
0.264528
0.163786
-0.150665
-0.00592844
0.130377
-0.122031
0.211428
-0.198083
0.0643464
-0.00445629
0.316189
-0.347454
0.0357206
0.417329
-0.0328837
0.00334818
-0.120554
-0.319362
0.100856
0.227584
-0.443327
0.306886
-0.0437033
0.347947
0.043344
-0.347587
0.0311672
-0.0294006
-0.0176889
0.125169
0.325824
-0.146082
0.0556264
0.155656
-0.0625879
0.315148
-0.31379
0.0612297
-0.00596458
0.302812
-0.322915
-0.168651
0.0611973
-0.429067
-0.0609659
0.428836
0.0542819
-0.0768489
-0.0824496
0.105017
-0.0815132
0.193711
0.269578
-0.0080375
0.00793344
-0.00360868
0.302633
-0.406514
-0.253176
0.485102
-0.253691
-0.4076
0.176188
0.274337
0.419432
-0.335117
-0.0560108
-0.0283047
-0.00051789
0.00144641
-0.00945202
-0.00134165
0.259715
-0.361194
0.0299036
-0.0180884
0.192478
-0.118382
0.345336
0.362714
0.190823
-0.358197
-0.195339
-0.264321
0.268079
-0.37714
-0.00813986
-0.0589225
0.462912
-0.114122
0.0473985
-0.0603187
0.0167342
0.0312767
-0.00534241
-0.181173
0.174203
-0.134987
0.0959689
-0.123975
-0.0743419
0.0761602
0.0524636
-0.117283
0.0574034
0.11782
-0.0579411
-0.0490891
0.0756286
0.00904098
-0.305166
0.156203
-0.0674513
-0.0339122
0.203174
0.00887572
0.0239416
0.159752
0.148954
0.100056
-0.0312175
-0.09068
0.0823227
-0.329365
0.337723
-0.194643
0.0542063
-0.0460134
0.0784114
-0.157891
0.171648
0.224887
-0.270085
0.161029
0.171796
-0.0627403
-0.0521763
0.0366249
-0.0854609
0.06162
-0.0176913
0.0189302
-0.00711211
0.102877
-0.0991417
0.235458
-0.37456
0.378903
0.0992214
-0.103564
0.0382575
0.0492563
0.0385539
0.263434
-0.256561
-0.0454264
-0.0717735
0.326027
-0.335767
0.250676
-0.0766165
-0.140849
0.0368261
-0.00513991
0.000927953
0.00294195
-0.426206
0.0136807
-0.196808
0.0990223
0.200663
-0.318558
0.30029
0.164094
-0.145825
0.0212925
-0.462684
0.474089
-0.0326972
-0.136229
0.328895
0.211806
-0.337886
-0.112074
0.142278
-0.175425
0.221548
0.285851
-0.141875
-0.329994
0.333384
-0.0236939
-0.259818
0.2848
-0.0610299
0.0410614
-0.318567
-0.260051
0.345265
0.233352
0.00587493
0.00714146
-0.0212792
0.00826284
-0.0732569
0.0235136
-0.230419
0.280162
0.448928
0.271018
-0.436924
-0.283022
-0.21576
0.202504
0.206967
0.250419
-0.15343
0.087924
-0.285002
0.200644
-0.0356015
-0.0170706
0.00358306
-0.300643
-0.0937964
0.172287
-0.213901
0.0295034
0.223045
-0.0386476
-0.234141
0.186015
0.239994
-0.47172
-0.0302141
0.149358
-0.0388167
0.00329845
-0.00855693
0.422588
-0.435375
0.0154013
0.2738
0.146174
-0.0473615
0.0244027
-0.102054
0.227793
-0.181382
-0.0554114
0.0523773
-0.0824268
0.0113729
0.370285
-0.0589389
-0.322719
0.242112
0.178477
-0.25956
-0.137214
-0.090599
0.219708
0.00810562
-0.00737406
-0.00633895
0.0328768
0.410262
-0.0494197
0.334385
-0.0514964
0.503668
-0.498509
-0.0518522
-0.449474
0.456357
-0.0505064
0.346275
0.0625992
-0.0528057
-0.435743
-0.0500002
-0.433152
0.427066
0.0559997
-0.0499132
0.490219
-0.538656
0.103217
-0.0547801
0.378283
0.0571384
-0.0492771
-0.515947
0.538597
0.0305518
-0.0532013
0.498922
0.0140552
-0.0508515
0.514688
0.053385
-0.515581
-0.0524922
-0.572888
0.68382
-0.0571674
-0.0537645
-0.482105
0.049987
0.487544
-0.0554263
0.442779
0.0595324
-0.452918
-0.0493937
-0.0496417
0.0610028
0.396026
-0.0502991
-0.432929
0.440439
0.0426483
-0.0501579
0.0901701
0.30223
-0.0548074
-0.066127
0.181371
-0.26841
0.260752
-0.167767
0.0125997
-0.00856038
0.00389848
0.0692746
-0.0564571
0.15141
-0.225011
0.215383
0.313487
-0.207842
0.313075
-0.0394663
0.324883
-0.271367
-0.0114489
0.00138856
0.133948
-0.202917
-0.0366999
0.0266737
0.156264
-0.0268141
0.332566
-0.338242
0.359027
0.0291548
-0.0499401
0.442271
0.0173075
-0.0493161
0.360227
0.0244912
-0.0503333
-0.435732
0.367473
-0.0536935
0.180356
-0.0456747
-0.222812
0.337394
-0.39395
0.402899
-0.161537
-0.0094405
-0.0130925
-0.363831
0.386364
0.050279
-0.0554727
0.168101
0.0549912
0.025644
-0.21271
-0.25737
0.0923369
-0.110048
0.275081
0.257627
-0.421551
0.0160801
-0.0381688
-0.0135127
0.238513
-0.258967
-0.253479
0.273932
-0.242479
-0.157475
0.114952
-0.34412
0.357043
0.0395138
-0.0524368
-0.381523
0.421927
-0.0498446
-0.318059
0.325691
-0.0562512
-0.345627
-0.0557943
-0.35598
0.360515
0.0457745
-0.0503098
0.316515
-0.318921
0.0579986
-0.0555931
-0.577159
0.466126
0.160398
-0.0493646
-0.384389
0.401946
0.031793
-0.0493502
-0.534901
-0.0638267
0.649795
-0.0510676
0.476263
0.169068
-0.593237
-0.0520935
0.475262
-0.453261
0.031246
-0.0532469
0.504467
-0.491335
0.0407141
-0.0538464
0.0601831
-0.392234
-0.0104672
0.00821679
0.31844
0.204737
0.237304
-0.270244
0.215326
0.160397
-0.14793
0.340544
-0.231521
0.367731
-0.247575
-0.0241871
-0.289087
0.0597116
0.106654
-0.108962
-0.360738
0.0552892
-0.0505308
-0.0559074
0.0290725
-0.0500803
0.078899
0.44967
-0.0523067
0.0547896
-0.0526347
0.506382
0.0522175
-0.0541321
-0.332833
0.0432505
-0.0560446
0.0432316
-0.0493373
-0.0534711
-0.324639
0.0605942
-0.0548758
-0.455613
-0.0720756
-0.0494703
0.0149185
-0.0508973
-0.125326
-0.381135
0.257544
-0.294859
-0.0447497
0.0547519
-0.163405
-0.0285611
-0.271015
0.289382
-0.1621
0.0216722
0.174156
-0.390933
0.275484
-0.236605
0.229154
0.217694
-0.188571
0.0026331
0.000334988
0.00172461
-0.10746
0.10243
-0.239699
-0.16277
-0.00785554
0.0175842
0.14287
0.301226
0.224067
-0.0440336
-0.344093
0.0532945
-0.279947
-0.0417572
0.0587046
-0.0479027
0.039815
-0.0506169
-0.000382629
0.00490805
-0.26755
0.226039
-0.459122
0.132607
-0.0298169
-0.00174822
0.194689
0.0546299
-0.04761
0.43892
0.0514839
-0.0527434
0.52567
-0.0324475
-0.0654274
-0.427796
0.0591461
-0.0495192
0.236506
-0.351158
0.0835431
-0.335696
0.00967425
0.0268873
0.0377735
0.261615
-0.275657
0.192519
-0.0492068
-0.299552
-0.106186
0.383669
-0.368163
-0.0801499
0.0859836
-0.00193514
-0.310361
0.0830952
0.0616549
-0.187596
-0.00412902
0.229363
-0.10791
-0.00282546
0.381708
-0.371752
0.185311
-0.104027
0.134042
-0.0111513
0.00335624
0.0409912
-0.049562
0.0765022
0.0257334
0.105719
-0.0503457
-0.423544
-0.0928689
0.282272
0.00974195
0.145641
-0.15785
0.042178
-0.0518151
-0.0440804
0.26189
0.303636
-0.203407
-0.281173
0.180943
0.166974
-0.0609648
0.349697
-0.147363
-0.243403
0.0714049