/*--------------------------------*- C++ -*----------------------------------*\
  =========                 |
  \\      /  F ield         | OpenFOAM: The Open Source CFD Toolbox
   \\    /   O peration     | Website:  https://openfoam.org
    \\  /    A nd           | Version:  10
     \\/     M anipulation  |
\*---------------------------------------------------------------------------*/
FoamFile
{
    format      ascii;
    class       volVectorField;
    location    "800";
    object      U;
}
// * * * * * * * * * * * * * * * * * * * * * * * * * * * * * * * * * * * * * //

dimensions      [0 1 -1 0 0 0 0];

internalField   nonuniform List<vector> 
23845
(
(0.713325 -0.107375 1.1766e-20)
(0.477494 0.0973922 -5.17349e-21)
(0.240234 -0.0119786 2.74292e-20)
(-0.136696 0.0165858 7.27743e-22)
(0.0773688 0.0588474 5.36474e-21)
(0.812386 -0.00725344 -7.96504e-26)
(0.917174 -0.0291091 -1.28587e-20)
(-0.0757865 0.0664424 -2.66624e-22)
(0.935085 -0.00779476 6.20909e-24)
(0.854358 0.0969213 -5.77521e-21)
(0.450391 -0.0479166 -5.28523e-21)
(0.753341 -0.000948867 3.54454e-24)
(0.928303 0.0153346 1.72556e-23)
(0.891219 -0.00845831 1.53403e-24)
(0.715865 0.0342803 -2.15921e-20)
(0.934837 0.0735729 -1.02328e-21)
(0.810635 0.0204899 1.37002e-23)
(0.602083 -0.0161548 -1.39484e-23)
(0.948861 -0.0257482 -1.70563e-22)
(0.777766 0.00825419 2.60403e-22)
(0.890529 0.0985187 1.90312e-20)
(0.403206 -0.0362151 -9.39179e-21)
(1.05681 -0.0523984 -3.19388e-21)
(0.94152 -0.00823501 7.33451e-24)
(0.762123 0.0873508 -1.00284e-21)
(0.99243 0.00689858 -8.95099e-24)
(0.938891 0.0528835 1.06683e-20)
(0.80717 -0.00874749 4.18318e-22)
(-0.0526675 -0.117814 7.80333e-21)
(0.803249 0.00938929 -1.56766e-22)
(-0.148808 -0.00880911 3.22226e-20)
(-0.0311845 0.0861233 4.16622e-22)
(0.415965 -0.0199375 1.01091e-20)
(0.651284 -0.0216589 1.02233e-23)
(0.750186 0.000440644 -1.44413e-23)
(0.743335 0.00411191 2.09333e-22)
(-0.0438031 0.11708 -7.15478e-21)
(0.752186 -0.000926814 -3.46279e-24)
(0.780444 -0.00429137 -1.76929e-23)
(0.919593 0.00877373 8.45158e-24)
(0.976915 -0.032094 1.33311e-22)
(0.737659 -0.0159455 3.79025e-22)
(0.949181 -0.0137891 -1.78371e-22)
(0.685252 0.0133452 -2.05423e-22)
(1.01027 -0.00725271 -5.65406e-23)
(0.886412 0.0160368 6.1874e-23)
(-0.0697068 -0.0251552 -1.85312e-21)
(0.892682 -0.0705404 -4.57023e-21)
(-0.0236495 0.00950715 1.56228e-21)
(-0.0596036 -0.11582 3.43263e-21)
(-0.0493141 -0.044418 7.15405e-22)
(0.155684 -0.0154794 -4.00793e-21)
(-0.0221342 -0.0410209 -3.64121e-21)
(0.85906 -0.00907497 -1.55832e-22)
(-0.0343847 0.0960258 7.59475e-21)
(0.867354 0.0205596 2.31869e-23)
(0.212498 0.0710003 2.69786e-20)
(-0.0909923 -0.0369354 1.87383e-20)
(0.784554 0.104804 -3.69576e-20)
(0.0110678 0.0263463 -1.72863e-20)
(-0.0428374 0.103038 2.54952e-21)
(0.698878 0.0151251 7.01566e-23)
(0.923346 0.0626524 -1.1288e-21)
(-0.0375258 -0.0967486 3.35352e-21)
(0.960617 -0.00831956 -3.00909e-24)
(0.910605 0.0147961 -1.01192e-22)
(0.979613 0.0352834 1.09829e-20)
(1.01893 0.00630233 9.49197e-23)
(1.01696 -0.00718175 -1.71484e-22)
(0.938222 -0.0328533 5.39305e-23)
(-0.0607007 0.0874677 2.72055e-22)
(0.147069 0.00549398 1.67285e-20)
(0.98346 0.00929466 1.08966e-23)
(0.797044 0.0320628 1.244e-20)
(0.980561 -0.00804091 -2.72731e-22)
(0.659069 0.033119 -7.72776e-23)
(0.758675 -0.00207371 -5.14154e-24)
(0.777544 -0.00466675 2.45776e-23)
(-0.118972 -0.022746 3.81676e-21)
(0.790112 0.0304224 -8.60295e-24)
(0.969154 0.0703108 -2.58456e-21)
(0.682031 -0.0388906 -3.80038e-20)
(0.327235 0.0858491 -4.56929e-21)
(-0.085192 -0.0534815 -7.91578e-22)
(0.244411 -0.00235679 -7.85359e-21)
(0.751498 0.00165941 -3.43597e-23)
(0.611044 0.058778 1.44442e-20)
(-0.0177476 -0.0136464 1.69785e-20)
(0.960803 -0.00778835 9.10543e-23)
(0.856377 0.0295909 -1.07963e-22)
(-0.0479546 -0.0820318 -1.26589e-20)
(0.972549 0.0414761 -6.36626e-22)
(-0.0481295 -0.106397 1.13156e-20)
(0.752423 -0.00501924 -1.71597e-22)
(-0.088056 -0.0251237 2.80757e-21)
(-0.0536929 -0.0922881 -3.54947e-20)
(0.845811 -0.019734 1.54666e-23)
(0.874231 -0.0731395 -3.5458e-22)
(0.97923 -0.00797492 2.00384e-23)
(-0.00941286 0.0383073 -8.17183e-21)
(0.850827 -0.0235 4.62995e-23)
(0.975984 0.031779 3.76636e-21)
(0.407427 -0.0985551 1.48818e-20)
(-0.0689991 -0.0878344 -1.58884e-20)
(-0.054033 -0.0940078 -2.95592e-20)
(-0.0935479 -0.0453846 5.22367e-21)
(0.832006 -0.00818576 8.03484e-24)
(0.992278 -0.0079459 1.61156e-22)
(1.03587 0.0267857 -1.69692e-21)
(0.713343 0.0139265 2.00698e-22)
(0.498787 -0.0437426 -1.54175e-21)
(0.757155 -0.00226398 -7.08753e-24)
(0.359384 0.0122815 1.60196e-20)
(0.847523 -0.0890367 -2.18298e-21)
(0.747072 0.00466075 -1.04494e-22)
(0.955045 -0.0894773 -2.7204e-21)
(0.977695 -0.00773206 -1.24519e-22)
(0.940837 0.0836313 -5.85129e-21)
(-0.0525149 -0.119336 5.73197e-21)
(-0.0222211 0.0841277 -1.58699e-20)
(0.769983 -0.00362718 -2.30723e-23)
(-0.0395961 -0.0940113 -1.96699e-21)
(0.938963 0.032492 6.19999e-23)
(0.0229803 0.0436253 3.49244e-20)
(0.960201 0.0303706 -3.64153e-21)
(0.987292 0.00733978 -1.47104e-23)
(-0.0458323 0.099577 2.14641e-21)
(-0.0606605 -0.111171 -1.29698e-20)
(0.125664 0.0224813 1.05416e-21)
(-0.0577386 -0.0342712 1.26235e-20)
(0.129394 0.0273969 1.85426e-20)
(0.473058 0.0851229 5.86942e-22)
(0.31899 -0.0512342 2.65191e-22)
(0.859731 -0.00813546 1.57129e-24)
(0.826445 -0.0289684 1.71984e-23)
(0.574793 -0.107506 4.3082e-21)
(-0.0659057 0.0940934 3.32486e-20)
(0.754677 -0.00109982 1.00534e-23)
(1.02704 -0.0308495 6.49164e-23)
(0.78524 -0.00504905 1.69852e-23)
(-0.055177 -0.124163 -1.5681e-20)
(0.728784 -0.0138949 -1.29279e-22)
(0.769614 0.0051492 5.09176e-23)
(0.661721 0.0127441 3.53059e-22)
(0.928911 -0.0542662 -2.32605e-21)
(0.701747 0.0120687 -2.25009e-22)
(0.954214 -0.0882383 -3.16575e-22)
(0.39003 0.0222838 4.27901e-20)
(0.00916975 0.0734117 -1.29684e-20)
(0.869201 0.0395387 2.11583e-22)
(0.439241 0.0178767 -1.68266e-20)
(0.951769 0.0106754 -2.59273e-23)
(0.445057 -0.0651648 1.54537e-20)
(0.905564 -0.0111465 8.91131e-23)
(0.320982 -0.00564749 -5.83428e-21)
(0.730917 0.0506688 -8.22343e-22)
(0.234165 -0.08365 -5.14614e-21)
(0.753407 -0.0031553 -7.13396e-23)
(0.155284 0.0204952 1.29697e-21)
(-0.0538662 -0.107649 3.73801e-21)
(0.927756 0.0409789 2.81742e-22)
(0.660109 -0.0313958 -1.81707e-21)
(-0.0833081 0.0123325 -1.02871e-21)
(0.953017 -0.00800999 1.64313e-23)
(0.993413 -0.0157353 -2.02661e-23)
(0.791086 0.0391722 1.69453e-22)
(0.830502 -0.0074371 -2.66738e-23)
(-0.0449251 0.101364 -5.64595e-21)
(0.799006 -0.00834633 -3.99109e-23)
(0.699192 -0.0112835 2.87661e-22)
(0.843133 0.00794658 2.39493e-23)
(-0.118094 0.0213258 5.2067e-21)
(0.947406 -0.00869839 1.06752e-23)
(-0.0115898 0.0452708 -7.36542e-21)
(0.958293 0.00823743 2.82877e-22)
(-0.107201 -0.00173229 -4.47263e-21)
(0.975869 0.0496243 6.21833e-22)
(0.674712 0.0611557 1.4959e-21)
(0.992704 -0.00720087 -1.14528e-23)
(0.757974 -0.00348451 2.53611e-23)
(0.00788804 -0.0417512 6.89116e-21)
(-0.0405898 -0.0249624 8.27431e-22)
(0.763258 0.0355051 1.0983e-20)
(0.484915 -0.0359215 -6.28673e-22)
(0.925741 -0.0630972 -3.01659e-21)
(0.91771 0.0200767 9.97503e-24)
(0.727266 0.01549 -6.56729e-23)
(-0.0775199 -0.060684 2.74705e-21)
(-0.0552871 0.117534 1.84194e-21)
(0.764955 -0.0164822 -5.48427e-23)
(-0.0466192 0.102277 2.94184e-20)
(0.889404 -0.00833659 2.54931e-23)
(0.89508 0.00840239 8.77645e-24)
(0.847919 0.00818101 -1.58242e-23)
(0.937161 0.0504318 -8.35412e-22)
(0.909908 -0.00836152 -6.90425e-23)
(-0.0648355 -0.0927346 -2.73344e-21)
(-0.0556488 0.108557 1.94192e-21)
(-0.0789231 -0.0704178 -1.00516e-20)
(0.565425 -0.0519998 2.61665e-22)
(0.703349 0.038021 -6.90188e-23)
(0.89859 -0.00921982 -3.19139e-22)
(0.00267596 0.0745832 -6.84247e-21)
(0.352397 0.0684459 1.18546e-21)
(-0.0821892 0.0588867 1.16087e-20)
(-0.0841681 0.0260079 7.32729e-22)
(0.218578 0.00236473 -3.821e-20)
(0.807194 -0.00617335 -1.57544e-23)
(0.739265 -0.09106 -1.14064e-20)
(0.613449 0.0200195 -1.92495e-22)
(0.722059 0.0286053 -5.24315e-23)
(-0.0484741 0.114709 1.06049e-20)
(0.976231 -0.0580886 9.38008e-23)
(0.830603 -0.0106626 4.61118e-23)
(-0.0343836 -0.0364344 2.50555e-21)
(-0.0397256 -0.107406 -5.98433e-21)
(0.250239 0.048227 -3.68133e-21)
(0.704445 0.0163241 -5.66332e-23)
(-0.0526472 0.118601 1.56153e-20)
(0.149507 0.0270275 -1.86891e-22)
(0.978663 -0.0104384 -2.78821e-23)
(0.731876 0.033558 -6.49637e-21)
(-0.0668007 0.0908291 -2.07892e-20)
(0.817303 0.0515147 -9.92848e-22)
(0.674224 0.0105505 -1.14674e-22)
(0.458289 -0.0212963 2.14575e-20)
(-0.0595324 -0.11269 -7.47816e-21)
(0.887105 -0.00819731 5.87373e-23)
(0.811665 0.00791285 3.66615e-24)
(0.976882 0.0323728 5.37914e-22)
(0.772649 -0.00545193 1.22869e-22)
(-0.0283582 -0.00658548 -9.47273e-21)
(0.756547 -0.00234074 5.59523e-24)
(1.01396 0.0062766 -2.14424e-23)
(0.118973 0.0638148 8.36552e-21)
(-0.0497412 -0.112898 -1.06221e-20)
(0.967033 -0.0086648 6.25823e-23)
(-0.153819 0.00783546 8.80314e-21)
(0.955551 0.00811531 9.5636e-23)
(-0.079362 -0.0262375 2.19995e-20)
(-0.0223118 0.0247628 8.71095e-21)
(0.941611 -0.087274 6.57657e-21)
(-0.0971143 -0.0432673 -1.28279e-20)
(0.125298 0.0664562 -1.38509e-20)
(-0.0426066 0.0922998 3.14862e-21)
(0.914175 0.0653527 -2.40072e-22)
(0.840336 -0.0081718 2.38015e-24)
(1.0172 -0.00661746 2.88625e-22)
(-0.09662 0.0112393 2.11725e-21)
(0.609943 -0.0305837 5.22619e-21)
(0.854421 -0.0150001 -4.38232e-23)
(0.750519 0.00265443 -1.00528e-23)
(-0.0513282 0.0538979 -4.39697e-21)
(0.965819 0.0145765 -6.81917e-26)
(0.789322 -0.0300614 -8.01202e-21)
(-0.0509483 0.0873883 2.17783e-21)
(-0.00463694 0.0733857 4.21685e-20)
(-0.0617223 0.0614491 7.51871e-22)
(0.746146 -0.00475003 1.26767e-23)
(0.933013 -0.00876407 -1.13267e-22)
(-0.0135452 0.000390456 -2.10645e-20)
(0.746607 -0.00222504 -1.85083e-23)
(-0.0501201 0.0953159 -3.47361e-21)
(0.546706 -0.045561 1.85593e-21)
(0.639751 0.0462809 -2.6068e-23)
(0.944408 0.00766412 -2.59342e-23)
(-0.116461 -0.00463924 -3.1049e-21)
(0.056266 0.0447445 -1.41401e-21)
(-0.140304 -0.00171584 5.51998e-21)
(-0.148026 0.0095393 -1.55322e-20)
(0.770157 -0.00398502 1.14552e-23)
(-0.11441 0.0268842 -3.1102e-21)
(-0.0439633 -0.0147551 -5.09977e-22)
(0.882751 0.00859097 -7.14004e-23)
(0.439817 -0.0319408 -1.07689e-21)
(0.902436 0.00860164 1.04675e-23)
(-0.059126 -0.0694497 6.91989e-21)
(0.878239 -0.00815037 -3.04841e-23)
(-0.0652518 -0.0719466 3.70676e-21)
(1.05923 0.0560506 1.82365e-20)
(-0.0836657 -0.0474851 1.88762e-20)
(0.816151 0.00800576 -1.82706e-23)
(-0.0605862 -0.0343341 1.01001e-20)
(0.877936 -0.049045 5.9258e-23)
(0.747591 3.34688e-05 -1.48763e-23)
(-0.020265 -0.08818 -1.29143e-20)
(-0.0263743 0.0352327 -3.95094e-21)
(0.91269 -0.00817208 -3.70708e-23)
(-0.0853306 0.0380703 -3.8862e-22)
(0.428099 -0.0197857 1.00277e-20)
(-0.108836 0.0100049 2.56455e-21)
(-0.036515 0.0295148 -1.05758e-20)
(-0.034994 -0.0982756 2.60109e-20)
(-0.0605438 0.0725589 -5.22044e-21)
(-0.0966239 0.0234219 3.36573e-22)
(0.751063 -0.0011476 -5.68366e-24)
(-0.0112136 0.0829862 1.67109e-20)
(0.854829 -0.00855553 -8.97063e-23)
(0.750049 0.00145536 -5.20615e-24)
(-0.0528298 -0.118115 -6.91003e-21)
(0.1447 0.0168075 3.13056e-20)
(0.457694 -0.0182736 1.49519e-20)
(-0.0473961 -0.111649 1.91029e-20)
(-0.156184 -0.00111231 8.10631e-20)
(0.861956 0.00822425 2.48853e-23)
(-0.160953 0.00174625 -4.71766e-20)
(-0.0393801 -0.0927215 -1.30222e-20)
(-0.0461985 -0.0292955 -3.15393e-21)
(0.860151 -0.022716 1.7651e-24)
(-0.0646771 0.0978589 4.48685e-21)
(-0.041683 1.45548e-05 -1.27937e-20)
(0.326727 -0.061099 3.1643e-20)
(0.919552 -0.0208405 1.07502e-23)
(0.839099 0.00810961 9.19004e-23)
(0.0538652 0.0019505 3.08453e-20)
(-0.0564813 -0.122434 1.45152e-20)
(-0.0168765 -0.0856883 1.79989e-21)
(0.324515 0.0503493 -1.39411e-20)
(-0.0514782 0.0958082 5.62329e-21)
(0.974915 -0.011474 1.52753e-23)
(-0.0555429 0.0876998 8.79619e-21)
(-0.0468257 0.108808 -8.07577e-21)
(0.0222962 0.063856 -2.29738e-20)
(0.815842 -0.0091868 -1.58823e-22)
(0.533947 -0.0285076 -1.24756e-20)
(0.802516 0.00707067 -1.7848e-23)
(-0.136708 -0.00772486 -1.94124e-20)
(-0.0776311 -0.0265172 1.15816e-20)
(-0.00165054 -0.0705775 -6.12103e-22)
(0.573292 0.0160348 5.03455e-22)
(0.341146 -0.0301401 5.21818e-20)
(0.82061 -0.046705 -1.96306e-22)
(-0.0499708 -0.0674071 9.64693e-21)
(0.74161 -0.000414772 1.52987e-23)
(-0.000107148 -0.0750379 -4.6657e-21)
(-0.140048 0.0130379 -2.26709e-21)
(-0.0712245 -0.0147219 -1.20638e-20)
(0.591426 0.0137693 -2.44965e-22)
(0.72522 0.0110843 2.36247e-22)
(-0.123387 -0.00973845 1.07501e-20)
(-0.0896094 0.023123 -1.32518e-21)
(0.0154614 0.0698563 -1.32414e-20)
(0.452262 -0.040341 6.46873e-21)
(1.01194 0.00702128 -4.21063e-23)
(1.01234 -0.00721964 2.32602e-23)
(-0.0697763 0.0671518 -4.84672e-21)
(0.74351 0.00178771 -3.61062e-23)
(-0.0557773 -0.0816037 6.05531e-21)
(-0.128328 -0.0149421 9.18005e-21)
(0.367092 -0.0161754 -4.17769e-21)
(-0.0960977 -0.011217 1.63992e-20)
(0.123204 -0.0295387 -6.95267e-21)
(-0.0618681 0.10971 2.06012e-20)
(-0.0563152 -0.0537907 -1.07732e-20)
(-0.0211325 0.041872 2.15144e-20)
(0.893295 0.00834684 5.39101e-23)
(0.688384 -0.00959653 -2.26966e-23)
(0.969834 0.00882518 -3.03554e-23)
(0.479077 0.0268243 -7.49694e-21)
(-0.0968225 -0.0394997 3.60265e-21)
(0.0669738 0.0355549 -1.22221e-20)
(0.965746 0.00721145 -4.44174e-23)
(0.948028 -0.0892499 -7.02878e-21)
(0.88762 -0.043841 -8.50302e-22)
(-0.0538797 0.119208 1.06732e-20)
(0.840472 -0.00774038 1.78372e-24)
(0.0260211 -0.056868 -3.11985e-21)
(0.762882 -0.00658087 7.22322e-23)
(-0.0526967 -0.119656 6.72037e-21)
(0.992225 0.00776374 3.15929e-23)
(0.704331 -0.0127031 -5.08852e-23)
(-0.04714 -0.0936652 1.90912e-20)
(-0.0304036 0.0667498 -1.38014e-20)
(0.754248 0.00193655 8.00863e-24)
(0.757444 -0.00417726 3.56816e-23)
(-0.0519448 0.0774779 -3.46304e-21)
(0.0504982 -0.00750177 -2.19411e-20)
(-0.1179 0.016048 -3.67327e-21)
(0.721022 -0.0127741 -1.27111e-22)
(-0.0858616 0.0360382 6.88523e-21)
(0.653409 -0.0367379 -1.223e-20)
(0.745883 -0.00264233 -1.17511e-23)
(1.02677 -0.0650413 1.50376e-20)
(1.01469 -0.00717525 3.52336e-23)
(1.01352 0.00667224 4.73447e-25)
(0.763952 -0.00328174 -1.2342e-23)
(0.788533 -0.00607322 -2.21995e-22)
(-0.116552 -0.0175521 -6.3625e-21)
(0.617358 0.0312088 -2.12576e-24)
(-0.0981899 -0.0257232 -1.34646e-20)
(0.942651 -0.0404831 -2.72073e-21)
(0.692173 0.0109236 7.61403e-23)
(-0.0358293 -0.0839547 3.07739e-20)
(-0.0527018 -0.0851807 7.55629e-21)
(-0.0387982 0.0148085 9.48185e-21)
(-0.0534519 0.113423 6.64252e-21)
(0.554448 0.0396418 -8.39731e-22)
(0.999166 -0.0075739 -7.84194e-24)
(0.933732 -0.0336747 -2.58585e-22)
(0.739865 -0.00071782 6.2428e-23)
(-0.0245336 -0.00868761 -1.80055e-20)
(-0.159804 0.000689762 4.82615e-20)
(-0.0746995 0.044644 2.65003e-22)
(-0.0530711 0.0213142 -7.71323e-21)
(0.125051 0.0486974 1.9411e-20)
(0.694721 0.0372848 1.15943e-20)
(0.802495 -0.0059903 1.33426e-24)
(-0.0349097 0.0770362 1.96176e-20)
(-0.05384 -0.101491 9.78802e-22)
(-0.0295927 0.0812078 -1.61755e-20)
(0.550031 -0.0236799 -1.04854e-20)
(1.01525 0.00595841 2.3152e-23)
(0.85476 0.0318994 9.79666e-21)
(0.0287264 -0.0640709 1.14283e-20)
(0.3344 0.0942848 -1.52923e-20)
(0.0800834 -0.00350147 -1.63593e-20)
(-0.135884 -0.00515217 1.74223e-20)
(0.441262 -0.0266115 -4.21526e-22)
(0.787337 0.00628311 5.63337e-23)
(0.961741 0.0925303 1.36728e-21)
(0.142524 -0.00773289 6.9068e-21)
(0.748429 0.0101425 8.43683e-23)
(0.923632 -0.00808099 4.51775e-24)
(-0.130456 -0.00203 6.20543e-21)
(-0.0461892 0.0870823 6.56283e-21)
(0.653669 0.101479 5.92571e-20)
(0.109929 0.0130478 -6.4035e-21)
(-0.137976 -0.00690497 1.455e-20)
(0.0111525 0.0326269 1.15716e-20)
(0.0531214 0.0307034 -2.58188e-20)
(0.899046 -0.00824304 4.92652e-24)
(0.641937 0.0184467 4.45498e-23)
(0.0129094 -0.070017 -2.51243e-20)
(0.563701 0.00731674 3.81197e-22)
(0.855878 0.0124826 4.95396e-23)
(0.987013 -0.00903734 6.73557e-23)
(0.752183 0.00119822 3.11165e-23)
(0.918764 0.0193709 -2.18023e-24)
(-0.0462524 -0.110409 4.30034e-21)
(-0.0216105 0.0263564 4.19764e-21)
(0.575031 0.0310495 -4.92426e-22)
(0.0522769 -0.0221546 -1.55528e-20)
(-0.0563538 0.0967277 -2.11884e-20)
(0.115473 0.0297261 -4.99658e-21)
(-0.14932 -0.0027281 -8.25004e-21)
(-0.0170066 -0.0839767 -6.6775e-21)
(0.790254 -0.0091569 3.32936e-22)
(-0.162558 0.00383716 -2.31781e-20)
(0.781613 0.00624988 -3.5122e-23)
(-0.091627 0.0304432 -6.03087e-21)
(-0.122374 0.00234085 3.03383e-21)
(0.944768 -0.0108237 -5.61593e-23)
(0.0222326 0.0353533 -1.60635e-20)
(0.745572 0.00295888 -2.16158e-22)
(1.00913 0.00637705 -1.21067e-22)
(0.013829 -0.0692779 -1.63036e-21)
(0.00466298 0.0306242 4.90983e-21)
(0.346436 0.0694742 2.26115e-21)
(-0.0684052 0.0635345 1.29473e-20)
(0.874306 -0.00921121 1.90794e-22)
(0.77611 -0.0904356 -6.67565e-21)
(-0.148735 0.00427547 -5.24413e-20)
(-0.0627437 -0.102494 2.26269e-20)
(-0.0381172 -0.0289201 -7.21794e-21)
(0.781126 0.00632363 5.70884e-23)
(0.789293 -0.00571999 -1.42294e-23)
(0.837445 0.00844807 3.12946e-23)
(-0.0315083 -0.0214551 3.48967e-21)
(1.01064 0.00730562 -1.70178e-23)
(0.33985 -0.0112223 -4.04831e-21)
(0.811273 0.00839628 -4.22132e-23)
(0.820233 -0.00693425 -1.32125e-23)
(-0.168404 -0.00108602 -3.84198e-21)
(-0.0392902 0.0908175 7.8754e-21)
(-0.0317273 0.0909016 -2.22094e-20)
(0.103628 -0.0615079 7.30548e-21)
(0.958054 -0.00995384 -4.93316e-23)
(-0.0412943 0.0811647 -6.14998e-21)
(0.843888 -0.00925352 -2.69782e-22)
(0.88912 0.0336818 9.0014e-23)
(-0.134738 0.00978478 2.24735e-21)
(-0.162283 -0.000137353 -2.09964e-20)
(-0.163207 0.00265963 -8.39927e-21)
(0.386189 0.0307978 -2.96995e-21)
(0.565092 0.0276354 8.59048e-24)
(0.533686 0.0344165 -1.07375e-20)
(0.763878 -0.00353144 1.76277e-23)
(0.75762 0.0033245 -2.40478e-23)
(0.278768 0.0245209 -3.67772e-21)
(0.0222063 0.0614001 -9.6104e-21)
(0.989287 0.00763083 -1.73465e-23)
(0.164667 -0.0128191 2.26678e-20)
(-0.0558722 0.0878821 6.92098e-21)
(-0.156062 0.00350166 -1.66294e-20)
(-0.0722333 0.065618 -7.46233e-21)
(-0.106337 0.0163037 6.74294e-20)
(0.983831 -0.00966122 -2.70184e-22)
(0.0724069 0.00598084 -7.382e-21)
(0.973024 -0.00775513 6.02115e-24)
(0.7511 0.00332334 1.06726e-22)
(0.462211 -0.0550843 1.86035e-20)
(-0.052693 0.124759 -1.36715e-20)
(0.0415467 0.0596737 2.09624e-21)
(-0.128956 0.0024087 -1.52404e-20)
(-0.0950361 0.0460614 1.19792e-20)
(-0.108197 -0.0342743 1.30631e-20)
(0.522572 -0.0382418 1.60128e-21)
(0.961024 0.0175359 3.15033e-23)
(0.773551 -0.0077404 -7.05125e-23)
(0.0311919 0.0620747 -2.36278e-20)
(-0.164018 -0.00261131 1.11096e-20)
(0.0559691 -0.0530382 -1.80899e-20)
(-0.0452383 -0.117971 3.08065e-20)
(-0.168159 0.000174387 1.03957e-20)
(0.872318 0.00866672 -4.79736e-23)
(1.00925 0.00745533 -9.43738e-26)
(-0.165945 -0.00123487 4.76959e-21)
(0.317545 -0.00728236 -9.72919e-21)
(0.285614 -0.00138601 5.25398e-21)
(0.7501 0.0117867 1.7542e-22)
(-0.0335187 -0.101035 2.5708e-20)
(0.878768 -0.00974514 2.24005e-24)
(0.603071 0.0176496 -5.42276e-23)
(-0.0171437 -0.0799882 1.166e-20)
(1.00709 0.00714092 -2.74432e-23)
(0.851535 -0.0375909 5.71694e-21)
(0.746606 -0.0337713 -5.9268e-21)
(-0.0301114 0.0949015 -2.46428e-20)
(0.981504 -0.0732378 1.18562e-22)
(-0.0528896 0.117188 -3.56769e-21)
(-0.0513668 -0.111651 1.0173e-21)
(0.211327 -0.00521805 -5.37335e-21)
(0.116841 -0.048783 2.39156e-20)
(1.07501 0.0448936 -1.48762e-20)
(0.901507 0.0255908 3.66921e-25)
(0.960126 0.0182496 1.43366e-23)
(0.852383 -0.00953812 1.33187e-22)
(0.00327732 -0.075516 1.81263e-20)
(-0.073748 0.00205657 -8.51495e-20)
(-0.119512 -0.0266355 -1.5832e-20)
(0.252001 0.00363973 6.35926e-21)
(0.883526 -0.00905332 -9.22824e-23)
(1.05559 0.0626118 1.57149e-20)
(1.05198 -0.0594543 -2.60873e-21)
(0.934447 -0.0458358 7.03015e-23)
(1.04548 -0.0680877 -7.11766e-21)
(0.356992 0.0283397 9.96709e-22)
(0.936629 -0.0139387 4.44808e-22)
(0.826197 -0.00966439 9.08616e-23)
(0.927128 0.012385 8.00306e-23)
(0.910124 -0.0113434 5.36563e-23)
(0.748876 0.000157074 3.04113e-23)
(0.0206457 -0.0448556 -2.79669e-21)
(0.900945 -0.0129855 -1.79592e-22)
(-0.0863593 0.0519064 -4.241e-21)
(0.510942 0.0803876 -1.62826e-20)
(0.716319 -0.0107401 -6.17364e-22)
(0.0533835 0.054817 -1.23679e-20)
(0.741721 0.00138828 -1.21479e-23)
(0.785277 0.00742943 -2.76702e-22)
(-0.0950674 -0.00130176 1.78738e-21)
(-0.135018 0.00546071 -2.16477e-21)
(0.0396893 -0.0390446 -9.78377e-21)
(0.773317 -0.00831546 2.45746e-23)
(0.710738 0.0127985 -6.1032e-25)
(-0.0512976 -0.0768243 -5.27676e-23)
(-0.0482735 0.0968025 5.34225e-22)
(0.983804 0.00714633 6.0612e-23)
(-0.0486898 0.11328 -2.222e-20)
(0.964194 0.015261 -1.42758e-23)
(1.00885 -0.00784007 3.82395e-23)
(0.816153 -0.0423636 2.53201e-21)
(0.916898 0.0209917 -7.01883e-24)
(0.828994 0.00809265 1.61875e-22)
(0.918463 -0.0782271 6.8414e-21)
(0.0166463 -0.0379586 -1.74169e-21)
(0.00636059 -0.0578022 -4.55326e-20)
(0.211427 -0.012894 8.43533e-21)
(-0.065321 -0.0573827 8.38599e-21)
(-0.0534964 0.0199711 1.42158e-20)
(1.00635 -0.00843554 3.39449e-23)
(0.757563 -0.00219222 -1.02809e-24)
(0.930124 -0.0480911 5.27429e-22)
(0.330318 0.0213537 8.5555e-21)
(-0.00906473 0.0776912 1.10329e-20)
(0.672286 -0.0058519 3.3817e-22)
(0.985356 0.00910199 -1.31626e-25)
(0.978733 -0.00946082 9.85647e-24)
(-0.0658023 -0.0425625 -1.16737e-20)
(0.975944 -0.00935803 3.19708e-22)
(1.08255 -0.038341 -6.71182e-21)
(0.427195 0.022353 1.20161e-21)
(0.655897 -0.100828 -3.98181e-21)
(0.471428 -0.0291497 -7.92302e-22)
(-0.0588146 -0.0901549 -3.95567e-21)
(0.672848 -0.00719297 2.78141e-22)
(1.00962 -0.00715229 -6.53604e-23)
(0.873379 -0.00860836 2.93256e-22)
(0.606424 -0.0149248 4.4378e-23)
(0.762416 0.00370565 1.93697e-23)
(0.145484 -0.0104721 8.5596e-21)
(0.852882 -0.0118386 -1.85133e-22)
(-0.022009 0.00633476 -3.57986e-21)
(0.601685 0.0357939 -9.24246e-21)
(-0.0596867 0.029699 -1.07867e-21)
(0.636695 0.0861374 -4.19359e-22)
(-0.0629069 0.0494146 -1.08676e-21)
(-0.0402102 0.0158575 -2.2031e-20)
(0.848864 -0.0328094 -1.93414e-21)
(0.745897 0.0495608 1.06179e-21)
(-0.131992 -0.00612751 7.51916e-20)
(0.385231 0.090975 -1.02432e-20)
(0.210595 -0.0670441 -1.85681e-20)
(0.0274631 0.0372379 -5.10884e-21)
(-0.00417761 0.0709817 3.05532e-20)
(0.597359 0.10511 2.42962e-20)
(0.120626 0.0230281 -2.46378e-20)
(0.261097 0.0785936 1.85089e-20)
(0.811025 0.0107619 -1.70919e-22)
(0.86458 -0.0107006 -3.18464e-23)
(-0.0195906 -0.0171622 2.21159e-20)
(-0.0549954 -0.10212 -2.94034e-21)
(-0.0816687 -0.0141 4.02103e-20)
(0.716022 0.0426928 1.94274e-23)
(0.212897 0.0787117 -3.14125e-20)
(0.484122 0.0122396 5.81184e-23)
(0.979907 -0.0283769 -3.2997e-23)
(0.615577 0.00713363 8.33797e-22)
(0.989293 -0.0187475 1.08331e-23)
(0.978117 -0.0720738 2.65119e-21)
(0.930084 0.0144918 3.32332e-23)
(0.900173 -0.0127565 -1.07152e-22)
(-0.140219 0.0132971 2.53243e-20)
(0.809581 -0.00911614 2.05219e-23)
(0.753123 0.00195866 5.30857e-23)
(0.40332 -0.0151921 3.06483e-20)
(0.48754 0.103906 6.88572e-21)
(0.930199 -0.0811572 2.35502e-21)
(1.00588 -0.00905002 2.53298e-23)
(0.491926 0.0285259 -3.93421e-22)
(0.0367574 -0.0509664 -5.55469e-21)
(0.606497 0.0272499 -3.08589e-22)
(0.769247 -0.00647088 -1.12527e-22)
(0.962617 0.0164056 -6.58591e-24)
(0.741647 -0.107164 -1.43696e-20)
(0.520335 0.0732873 1.97448e-21)
(0.839228 -0.0992485 -4.43585e-21)
(0.967386 0.0138995 -6.37206e-24)
(0.644961 0.0830291 -3.18566e-23)
(0.178016 0.014763 -1.88154e-21)
(0.733463 0.00306129 6.63184e-23)
(0.746456 0.00116368 -3.995e-23)
(0.08272 0.00675042 -8.40033e-21)
(-0.103923 -0.0370516 9.16935e-21)
(-0.0361378 -0.100595 -3.26372e-20)
(0.322661 -0.0190462 9.55232e-21)
(0.0468051 -0.0544553 -9.86546e-23)
(0.766378 0.0842141 9.6624e-22)
(-0.0139236 0.0706573 2.07329e-20)
(0.482662 0.0454134 -4.22221e-22)
(0.677565 0.0324523 -6.73899e-23)
(0.905757 0.0287792 1.08854e-22)
(0.713239 0.0266665 1.19536e-24)
(0.268341 0.0921876 1.25201e-20)
(0.778804 -0.0270438 4.27235e-24)
(1.00344 -0.0078314 -9.50978e-23)
(0.99046 -0.0177752 -2.27068e-23)
(0.117963 0.0618809 1.7441e-20)
(-0.171166 0.000815308 3.09922e-20)
(0.547014 -0.0731729 -1.1131e-21)
(0.979345 -0.0701391 -6.11599e-22)
(0.454424 0.0137649 -3.09822e-22)
(0.626897 -0.0530638 4.00374e-22)
(0.41565 0.0106525 -2.71204e-22)
(0.459323 0.00881653 4.12374e-22)
(0.190787 0.0133334 1.1718e-20)
(0.487222 0.00774522 -2.17735e-22)
(0.127607 0.0141329 1.66185e-20)
(0.671006 -0.0528934 1.16813e-21)
(0.775637 0.0280849 -3.06873e-23)
(0.580036 -0.0575762 -4.45094e-21)
(0.522772 0.00353994 -1.42413e-22)
(0.774428 0.0142786 3.61961e-22)
(0.547034 0.00566501 1.72976e-22)
(0.775272 0.0271474 -2.48148e-24)
(0.504515 0.0794713 -4.62482e-21)
(0.869783 0.019111 2.20504e-23)
(0.570464 0.0025111 -7.06546e-22)
(0.390361 0.0574712 -6.83579e-21)
(0.650629 0.0805122 1.38825e-21)
(0.598631 0.00546237 -6.39794e-22)
(0.791632 -0.0167812 7.80601e-23)
(0.425528 0.00466418 5.76214e-22)
(0.380098 0.00028023 2.99629e-22)
(0.3359 -0.00233572 5.17651e-22)
(0.272104 0.0065919 -5.5247e-21)
(0.215586 0.00993692 -6.78752e-21)
(0.467253 0.00243974 -2.50599e-22)
(0.145422 0.00174176 -1.40079e-20)
(0.494064 0.00217454 6.01337e-23)
(0.638379 -0.0578428 7.67131e-22)
(0.53233 0.000313142 -5.06713e-24)
(0.703107 -0.0523499 -1.57887e-22)
(0.551208 0.00230638 1.09138e-22)
(0.661342 -0.0199003 -4.15597e-23)
(0.717814 -0.0246987 -2.33389e-23)
(0.579916 0.00129 -2.5862e-23)
(0.614178 0.00426482 -7.02383e-22)
(0.601705 0.00105311 3.20195e-22)
(0.955659 -0.0208531 -1.08146e-22)
(0.816718 0.0186224 -8.90765e-24)
(-0.163267 -0.000272358 -2.69705e-20)
(0.953588 -0.00900867 -5.88689e-23)
(0.819742 -0.0173981 -2.01167e-22)
(0.811548 0.0201713 9.23685e-23)
(0.61726 0.00105796 6.43001e-22)
(0.821564 -0.0079291 2.4737e-22)
(0.558003 -0.0398723 1.84272e-21)
(0.628637 0.00258284 3.28191e-23)
(0.39352 0.0155828 1.27735e-21)
(0.344898 0.0139171 4.01665e-22)
(0.512077 0.0121037 1.80059e-22)
(0.637058 -0.000846326 -3.00898e-22)
(0.814402 0.0179994 1.18113e-24)
(0.737971 -0.00432375 -5.12747e-23)
(0.838842 -0.0690253 -1.45983e-21)
(0.859801 -0.0546971 -8.69251e-22)
(0.0821054 -0.0200111 3.06334e-20)
(0.944024 -0.0117095 -1.7941e-22)
(0.433056 -0.0181418 -2.95214e-22)
(0.653437 0.000578797 -2.74211e-22)
(0.611225 -0.014003 -6.14766e-23)
(0.755516 -0.00630889 -1.8182e-22)
(0.821126 0.0176468 1.91481e-23)
(0.271122 0.0320879 -1.04047e-22)
(0.657329 0.0193667 -5.17955e-22)
(0.0055587 0.0039375 -4.7264e-21)
(0.645701 0.00589303 1.18334e-22)
(0.899117 -0.00885452 -7.00821e-23)
(0.834214 0.011846 6.52437e-23)
(1.00041 -0.00723275 -1.2673e-22)
(0.665269 0.00175155 -6.96382e-23)
(0.701104 0.0358805 7.27124e-23)
(-0.0542273 0.0831882 -1.5327e-20)
(0.97567 -0.00892774 1.83327e-22)
(0.662376 0.00597896 -6.39637e-24)
(0.110127 -0.00497802 8.75064e-21)
(0.668014 0.00109503 3.6232e-22)
(0.816823 0.0119009 -1.7173e-23)
(0.784694 0.00979057 1.3254e-22)
(0.389439 -0.0257449 -4.04326e-20)
(0.789692 0.0125193 9.54432e-23)
(1.01451 -0.00704209 -3.63102e-23)
(0.516734 0.0760852 2.41212e-21)
(0.814703 0.0189477 -3.79983e-23)
(0.0137367 0.0578602 4.75965e-21)
(0.656258 -0.0647139 -3.78341e-21)
(0.696405 -0.0563058 -3.80909e-21)
(0.245157 0.0111126 -3.58888e-21)
(0.297793 0.00402213 -6.34585e-21)
(0.168671 -0.0179703 3.46251e-20)
(0.763338 0.0147003 -2.08247e-22)
(0.479174 -0.00164286 5.86965e-22)
(0.493776 0.0268613 -2.41468e-22)
(0.408822 0.03148 2.00172e-21)
(0.505721 -0.000301751 1.11947e-22)
(0.846156 0.0466038 -3.71241e-22)
(0.561084 0.00086918 1.9803e-22)
(0.349078 0.0902841 -3.52666e-20)
(0.587773 0.00446341 -1.13144e-23)
(0.683281 0.000872754 1.57034e-22)
(0.225413 -0.00171173 -5.07627e-21)
(0.281745 -0.00670044 3.10572e-21)
(0.31168 0.0457117 8.48211e-21)
(-0.103871 -0.0162023 -1.69136e-20)
(0.731458 -0.0503446 1.86833e-21)
(0.808052 0.0118953 4.97504e-23)
(0.226447 0.078709 1.75978e-20)
(0.69884 0.0569392 -6.28382e-22)
(0.71808 0.023873 -3.16208e-22)
(0.609111 -0.00139881 5.57301e-23)
(0.555966 -0.00249249 -2.41205e-23)
(-0.0451932 0.0456281 3.31496e-21)
(0.902167 0.00888085 3.13799e-23)
(0.658586 -0.0463003 -1.29032e-21)
(0.679004 0.00407943 8.47358e-23)
(0.921376 0.0171829 -6.42236e-24)
(0.654012 0.0113005 -3.45582e-22)
(0.682346 0.00617931 -2.25929e-22)
(0.680507 0.00242822 -3.03666e-22)
(0.624911 -0.0020467 -6.63511e-22)
(0.831953 -0.018495 -2.40909e-23)
(0.722334 -0.0234769 5.7165e-23)
(0.750442 -0.0141492 1.37885e-22)
(0.659482 0.00189813 2.20686e-22)
(0.824112 -0.0166803 -1.19168e-22)
(0.00688521 0.0466071 1.72041e-20)
(0.548442 0.016798 6.69787e-23)
(0.805771 -0.0107369 -3.03733e-22)
(0.620532 0.0141874 1.78092e-22)
(0.639977 0.0108207 4.17694e-22)
(0.853877 -0.0172109 1.17342e-22)
(0.169888 -0.0281534 -1.50292e-20)
(0.678952 0.0446368 2.31785e-22)
(0.589722 0.053644 -4.70764e-22)
(0.74578 0.0356425 1.38743e-22)
(0.761953 0.0153498 2.7824e-22)
(0.821766 0.0124822 -3.26674e-22)
(0.812428 0.0176718 1.45599e-23)
(0.776731 -0.0154747 -5.03931e-23)
(0.379797 -0.0944603 -5.54354e-21)
(0.739502 -0.0681049 8.1374e-21)
(0.282648 -0.023052 -1.89251e-21)
(0.822822 -0.0330519 1.12842e-22)
(0.688606 0.0036522 1.84823e-22)
(0.5135 -0.0120703 1.38991e-22)
(-0.0434212 0.10517 8.75802e-21)
(0.650544 0.0452368 -3.8938e-22)
(0.978114 0.0307518 -2.45104e-22)
(0.97437 0.0471191 3.55397e-22)
(0.99705 0.0126621 4.29621e-24)
(0.991986 0.0163112 -2.99087e-23)
(0.976638 -0.0554274 -2.31459e-21)
(0.98813 -0.0196827 7.44707e-23)
(0.988667 0.0192268 1.33919e-25)
(1.00476 0.00982972 2.20428e-23)
(0.981606 -0.0268787 7.81225e-23)
(1.00082 0.0113558 -3.82928e-23)
(0.992888 -0.0149926 -5.62472e-23)
(0.998634 0.0120099 2.72333e-23)
(0.999581 0.00941477 1.54966e-22)
(1.00705 0.00906378 -1.97285e-24)
(0.985337 0.020535 -2.96442e-23)
(0.978691 -0.0302908 8.80552e-23)
(0.992072 -0.016835 -4.05957e-23)
(0.990424 0.0178461 -3.72e-23)
(0.981915 -0.0669202 1.68686e-21)
(0.668501 0.00934926 1.44663e-22)
(0.633957 -0.00770928 1.23833e-22)
(0.113861 0.00598629 -2.53907e-20)
(0.18727 -0.0135097 -1.04625e-20)
(1.00571 -0.00798632 1.5208e-22)
(0.950748 0.00786502 5.24478e-23)
(0.731256 0.0124504 -8.85438e-22)
(0.684082 -0.073441 1.0914e-21)
(0.351916 -0.000523175 1.72688e-22)
(0.574494 0.0553381 -3.20893e-22)
(0.395528 -0.00125164 -3.555e-22)
(0.707068 0.025108 -2.84348e-23)
(0.980601 0.026871 -4.55755e-22)
(0.977958 0.0293407 -4.26988e-23)
(0.978096 0.0445528 -6.88637e-22)