/*--------------------------------*- C++ -*----------------------------------*\
  =========                 |
  \\      /  F ield         | OpenFOAM: The Open Source CFD Toolbox
   \\    /   O peration     | Website:  https://openfoam.org
    \\  /    A nd           | Version:  10
     \\/     M anipulation  |
\*---------------------------------------------------------------------------*/
FoamFile
{
    format      ascii;
    class       volScalarField;
    location    "1800";
    object      epsilon;
}
// * * * * * * * * * * * * * * * * * * * * * * * * * * * * * * * * * * * * * //

dimensions      [0 2 -3 0 0 0 0];

internalField   nonuniform List<scalar> 
10435
(
0.869675
1.30213
0.855187
0.980873
1.11031
1.23389
0.774028
0.614124
0.564846
1.14619
1.2837
0.84893
1.15856
0.349174
0.426489
0.688044
0.283421
1.31997
0.534287
0.906394
0.64948
0.938381
0.736547
0.640773
1.01117
0.0446018
0.0731489
0.99679
0.0690783
1.24205
0.825926
1.26012
0.594798
0.0743052
0.639396
1.13817
0.675546
0.0786583
0.0303884
0.565942
1.34396
0.775885
0.15795
0.993041
0.715642
0.601402
1.26759
0.108148
0.546508
0.884539
0.629088
0.97948
0.0295512
0.055904
0.0336133
0.061895
0.674574
0.0850633
0.16448
0.629791
0.0332252
1.28176
0.0845797
0.980583
0.724122
0.908432
0.123849
0.116193
0.635168
0.674832
0.0544974
0.0603834
0.108926
0.83989
0.509645
0.23003
0.719021
0.732521
0.57617
0.472618
0.847531
0.751775
0.0288322
0.0576386
0.816883
0.922245
0.931177
1.06664
0.680017
0.994128
1.06327
1.05332
0.803063
0.76544
1.03628
1.01773
1.00526
0.521568
0.212184
1.0163
0.588147
1.23819
0.85275
1.05961
1.23289
0.992135
0.841415
0.871523
0.775066
0.548512
0.88831
1.24894
0.690421
0.621573
1.06926
0.945113
0.968675
1.01965
1.17253
0.926726
0.923957
0.227903
1.09579
0.716683
1.33495
0.0391119
0.962621
0.341295
1.02914
0.0705802
0.522033
1.36853
0.654642
0.397806
0.0680107
0.0287654
1.13268
0.955514
1.1702
0.944379
0.930826
0.77137
0.101153
0.863562
0.922263
0.433621
0.950551
1.0722
0.283426
0.81659
0.0815246
0.712885
0.924663
0.813834
1.06356
0.0594139
1.30164
1.14541
1.10603
1.43004
0.769536
0.327946
1.13969
0.844744
0.598152
0.959892
0.594442
0.897479
0.780479
0.923909
0.984574
0.0667124
0.066676
0.515572
0.788181
1.44192
1.22695
0.175839
0.885754
0.0781691
1.29842
1.21254
0.838667
0.0367686
0.755174
0.106429
0.166764
0.699286
1.10986
0.901978
0.881649
0.0286257
0.066328
1.2749
1.27017
0.661981
0.259076
0.81111
0.144155
0.681095
0.636384
0.0807442
1.07007
0.0870571
0.974367
1.11887
1.16492
0.926732
0.0895029
0.899439
0.0678299
0.772327
0.882169
0.824638
0.0730891
0.352757
0.678634
0.0388644
0.045292
0.266315
0.0725413
0.198367
0.108844
0.550819
0.0519384
0.646554
0.0371802
0.688564
0.867381
0.324038
0.152027
0.617837
0.0409534
0.72629
0.0764554
0.22844
0.685147
0.050638
0.713265
0.886285
0.98356
0.0451108
0.0441199
0.0607751
1.14114
0.573294
0.869792
0.640044
0.0525508
1.42857
0.0522909
0.722713
1.18104
0.87316
0.670347
1.01908
0.0470105
0.700346
0.054345
0.0862402
0.73364
0.944302
0.044198
0.77765
0.753376
0.167272
0.961202
0.785288
0.0336685
1.07611
0.773373
0.602619
0.640349
0.97883
0.0499729
0.894742
0.0731139
1.16246
0.681512
0.587095
1.12945
0.20386
0.825544
0.582554
0.801934
0.0335995
1.08715
0.033722
0.0593385
0.0762847
0.702542
1.40286
0.0909503
0.619037
0.0310172
0.0532273
0.337692
0.818217
1.20168
0.883267
0.130557
0.74148
0.880077
0.0573733
1.23423
0.43558
0.232337
0.742428
0.890363
0.0605138
0.869612
0.0700526
1.3728
1.09018
0.589908
0.0544267
0.0394784
0.823199
0.128698
0.870349
1.23538
0.0768547
0.870897
0.0285403
0.573701
1.05994
0.0549264
0.935585
0.133568
0.0791284
0.595482
0.085725
0.0610311
0.836078
0.773463
0.093386
0.0561095
0.0542487
0.0675782
0.0645821
0.0590402
0.059801
0.0327253
0.0663831
0.0635686
0.0712924
0.102117
0.0773399
0.0285984
0.563836
0.0628756
1.00789
0.0709163
0.995092
0.5622
0.533983
1.17108
0.801897
0.0586304
0.0667866
0.055357
0.0401027
0.0629596
0.0333872
0.0718895
0.0627377
0.100387
0.808189
0.0614081
0.557119
0.0367012
0.0667846
1.22823
0.518923
0.0355476
0.0722347
0.0799686
0.0752167
0.0649918
0.0494199
0.0838968
0.0351544
0.584197
0.108208
0.619054
0.553378
1.05606
1.11737
0.545035
0.938479
0.612058
0.4504
0.0734802
0.0660158
0.0559803
0.889822
0.0618907
1.22946
0.0804845
0.0789029
0.0695151
0.0900051
0.0443698
0.731082
0.0771191
0.600208
0.760399
0.0525588
0.0536906
0.0757118
0.525543
0.0755175
0.0574288
0.0499767
0.0626165
0.105438
0.0700893
0.916431
0.0545698
0.0551735
0.0703117
0.0809579
1.3421
0.0410746
0.0315945
0.498254
0.0664097
0.00046148
0.000449478
0.000426817
0.000396997
0.000362528
0.000324406
0.000283834
0.000241895
0.000199844
0.000517661
0.000499662
0.000471874
0.000437706
0.000399208
0.000357844
0.00031478
0.000271393
0.000229376
0.000584741
0.000561303
0.000528172
0.000489055
0.000446236
0.000401234
0.000355308
0.000309849
0.000266452
0.000668402
0.000639361
0.000600043
0.000555222
0.000507421
0.000458155
0.00040868
0.000360243
0.00031415
0.000775458
0.000739948
0.000693142
0.000641513
0.000587723
0.000533277
0.000479313
0.00042679
0.000376476
0.00091427
0.000870754
0.000814659
0.000754687
0.000693525
0.000632677
0.000573078
0.000515376
0.000459885
0.00109539
0.00104149
0.000973588
0.000903196
0.00083285
0.000764035
0.000697453
0.000633523
0.000572408
0.0013325
0.00126377
0.00118066
0.00109719
0.0010154
0.000936657
0.000861399
0.0007899
0.000722385
0.0016409
0.00154988
0.00144781
0.00134827
0.00125238
0.00116132
0.00107522
0.000994074
0.000917895
0.00203038
0.00191112
0.00178756
0.00166901
0.00155612
0.00144992
0.00135033
0.00125696
0.00116897
0.0025019
0.00235814
0.00221315
0.00207291
0.0019397
0.00181499
0.0016988
0.00159044
0.00148842
0.00305143
0.00290496
0.00273983
0.00257455
0.00241677
0.00226938
0.00213294
0.00200666
0.00188922
0.00372302
0.00357638
0.00338584
0.00318936
0.00300105
0.00282567
0.00266456
0.0025172
0.00238253
0.00457774
0.00440079
0.00416963
0.00393196
0.00370532
0.00349548
0.0033044
0.00313194
0.00297717
0.00565523
0.00539828
0.00510513
0.00481423
0.00454062
0.0042894
0.00406262
0.00386006
0.0036795
0.00695816
0.00657285
0.00619918
0.00584467
0.0055165
0.00521774
0.00495034
0.00471447
0.00450886
0.00841306
0.00791172
0.00745354
0.0070306
0.00664312
0.0062925
0.0059808
0.0057091
0.00547932
0.00999429
0.00940943
0.00887424
0.00838345
0.00793506
0.00753028
0.0071716
0.00686091
0.00660068
0.0117168
0.0110771
0.0104771
0.00992291
0.00941496
0.00895601
0.0085493
0.00819758
0.00790365
0.0136121
0.0129403
0.0122882
0.0116777
0.0111151
0.0106059
0.0101541
0.00976334
0.00943892
0.015721
0.0150352
0.0143417
0.0136842
0.0130769
0.0125273
0.0120396
0.0116173
0.0112634
0.0180974
0.0174063
0.0166769
0.0159843
0.0153496
0.0147794
0.014276
0.0138413
0.0134741
0.0208341
0.0201045
0.019334
0.0186219
0.0179886
0.0174327
0.0169519
0.0165453
0.0162091
0.0240669
0.0231739
0.022343
0.0216378
0.0210533
0.0205687
0.0201741
0.0198669
0.0196367
0.0279202
0.0266076
0.0257147
0.0250676
0.0246066
0.0242767
0.0240594
0.0239625
0.0238854
0.00183868
0.00179336
0.00175464
0.00172241
0.00169663
0.00167717
0.00166393
0.00165666
0.00165518
0.00165912
0.00166815
0.00168184
0.00169966
0.00172108
0.00174541
0.00177195
0.00179993
0.00182851
0.00185684
0.00188401
0.00190905
0.00193094
0.00194848
0.00196005
0.00196346
0.00195712
0.00194208
0.001919
0.00188733
0.00184477
0.0017938
0.00173561
0.0016704
0.00159954
0.00152425
0.00144566
0.00136491
0.00128307
0.00120124
0.00112042
0.00104157
0.000965591
0.00089323
0.00082515
0.0007619
0.000703895
0.000651417
0.000604652
0.000563631
0.000528319
0.000498582
0.000474217
0.000455013
0.000440713
0.000431104
0.00042597
0.00042515
0.000428515
0.000435898
0.00183303
0.00179145
0.00175595
0.00172647
0.00170289
0.00168511
0.00167301
0.00166643
0.00166518
0.00166897
0.00167749
0.00169034
0.00170706
0.00172708
0.00174981
0.00177455
0.00180055
0.00182699
0.00185302
0.00187775
0.00190026
0.0019196
0.00193478
0.00194469
0.00194805
0.00194336
0.00192948
0.00190584
0.00187245
0.00183002
0.00177978
0.00172258
0.0016591
0.00159016
0.00151667
0.00143966
0.0013602
0.00127937
0.00119826
0.00111794
0.00103939
0.000963527
0.000891165
0.000823
0.000759599
0.000701396
0.000648683
0.00060162
0.000560241
0.000524475
0.000494185
0.000469231
0.000449387
0.0004344
0.000424025
0.000418036
0.00041624
0.000418502
0.000424621
0.00179402
0.00175469
0.00172114
0.00169333
0.00167118
0.00165461
0.00164347
0.0016376
0.00163679
0.00164078
0.00164924
0.00166179
0.001678
0.00169735
0.00171923
0.00174301
0.00176795
0.00179328
0.00181817
0.00184176
0.00186314
0.00188135
0.00189536
0.00190403
0.00190617
0.00190061
0.00188646
0.00186323
0.00183087
0.00178978
0.0017408
0.00168479
0.00162257
0.001555
0.00148302
0.00140759
0.00132973
0.0012505
0.00117095
0.00109211
0.00101495
0.000940392
0.00086923
0.000802162
0.000739753
0.000682434
0.000630494
0.00058409
0.000543256
0.000507921
0.000477936
0.000453099
0.000433178
0.000417935
0.000407139
0.000400586
0.000398092
0.000399536
0.00040472
0.00172342
0.00168654
0.00165518
0.0016293
0.00160879
0.00159357
0.00158349
0.00157838
0.00157804
0.00158221
0.00159059
0.00160282
0.00161848
0.00163708
0.00165807
0.00168081
0.00170463
0.00172876
0.00175241
0.00177472
0.00179478
0.00181165
0.0018243
0.0018317
0.00183278
0.00182657
0.00181227
0.00178945
0.00175803
0.00171836
0.00167105
0.00161688
0.00155666
0.00149127
0.00142163
0.00134868
0.00127342
0.00119687
0.00112002
0.00104388
0.00096938
0.000897396
0.000828703
0.000763967
0.00070373
0.000648397
0.000598242
0.000553408
0.000513922
0.000479714
0.000450637
0.000426493
0.000407054
0.000392081
0.000381358
0.00037467
0.000371844
0.00037276
0.000377231
0.00163279
0.0015988
0.00156999
0.00154629
0.00152765
0.00151396
0.00150508
0.00150087
0.00150111
0.00150557
0.00151396
0.00152593
0.00154108
0.00155896
0.00157903
0.00160069
0.00162329
0.0016461
0.00166833
0.00168916
0.00170769
0.001723
0.00173414
0.00174014
0.00174009
0.00173316
0.00171871
0.00169638
0.00166609
0.00162807
0.0015828
0.00153093
0.00147324
0.00141056
0.00134381
0.0012739
0.0012018
0.0011285
0.00105497
0.000982167
0.000910991
0.000842269
0.000776736
0.000715018
0.000657623
0.000604926
0.000557177
0.000514503
0.000476921
0.000444353
0.000416653
0.000393621
0.000375032
0.000360653
0.00035026
0.000343653
0.000340661
0.000341165
0.000344987
0.00152306
0.00149186
0.00146551
0.00144398
0.00142718
0.00141503
0.0014074
0.00140414
0.00140504
0.00140987
0.00141835
0.00143016
0.00144489
0.00146212
0.00148133
0.00150194
0.00152331
0.00154475
0.0015655
0.00158477
0.0016017
0.00161544
0.0016251
0.00162981
0.00162875
0.00162125
0.00160675
0.00158498
0.00155585
0.00151955
0.00147647
0.00142717
0.00137238
0.0013129
0.00124956
0.00118329
0.00111498
0.00104558
0.000976034
0.00090725
0.000840081
0.000775303
0.000713602
0.000655564
0.000601653
0.000552213
0.000507465
0.000467519
0.000432378
0.000401957
0.000376104
0.00035462
0.00033728
0.000323854
0.000314122
0.00030789
0.000304988
0.000305298
0.000308652
0.00139728
0.00136891
0.00134507
0.0013257
0.00131076
0.00130017
0.00129382
0.00129156
0.0012932
0.00129851
0.00130721
0.00131898
0.00133343
0.00135013
0.0013686
0.00138827
0.00140854
0.00142872
0.0014481
0.00146591
0.00148136
0.00149364
0.00150195
0.00150555
0.00150367
0.00149575
0.00148135
0.00146024
0.00143234
0.00139779
0.00135695
0.00131033
0.00125863
0.00120261
0.00114305
0.0010808
0.00101673
0.000951697
0.000886646
0.000822414
0.000759785
0.000699475
0.000642114
0.000588246
0.000538299
0.000492581
0.000451289
0.00041451
0.000382229
0.000354351
0.000330718
0.000311128
0.000295359
0.000283182
0.000274381
0.000268759
0.000266155
0.00026645
0.000269486
0.00125492
0.00122908
0.00120746
0.00119008
0.0011769
0.00116787
0.00116289
0.00116182
0.00116445
0.00117052
0.00117978
0.00119185
0.00120634
0.0012228
0.00124078
0.00125981
0.00127932
0.0012986
0.00131699
0.00133369
0.00134796
0.00135901
0.00136624
0.00136902
0.0013666
0.00135854
0.00134446
0.00132421
0.00129763
0.00126484
0.00122622
0.00118226
0.00113373
0.00108138
0.00102581
0.000967893
0.000908422
0.000848166
0.000788098
0.000728909
0.00067131
0.000615944
0.000563377
0.000514108
0.000468553
0.000426965
0.000389553
0.000356358
0.000327335
0.000302362
0.000281273
0.000263875
0.000249951
0.000239285
0.000231671
0.000226919
0.000224864
0.000225386
0.000228333
0.00109464
0.00107082
0.0010511
0.00103563
0.00102444
0.00101742
0.00101435
0.00101484
0.00101897
0.00102678
0.00103748
0.00105062
0.00106566
0.0010821
0.00109978
0.00111824
0.00113731
0.0011567
0.00117505
0.00119118
0.00120451
0.00121449
0.00122084
0.00122299
0.00122039
0.00121256
0.00119925
0.00118025
0.00115517
0.00112396
0.00108735
0.00104598
0.0010006
0.000952052
0.000900868
0.000847203
0.000792137
0.000737377
0.000683022
0.000629325
0.000577186
0.000527221
0.000479875
0.000435528
0.000394519
0.000357308
0.000324028
0.000294898
0.000269686
0.000247985
0.000229592
0.000214434
0.000202412
0.000193336
0.000186995
0.000183254
0.00018197
0.000182997
0.000186191
0.0547907
0.0496799
0.0449776
0.0405278
0.0362925
0.0322521
0.0284245
0.0248362
0.0215065
0.0184522
0.0157308
0.0133712
0.0113603
0.00965598
0.00818367
0.00691951
0.005864
0.00499979
0.00429627
0.00372143
0.00324799
0.00285325
0.00251841
0.00222797
0.00196827
0.0524343
0.0486809
0.0444984
0.0402457
0.0360669
0.0320288
0.0281808
0.0245667
0.0212224
0.0181824
0.0154777
0.0131166
0.0110869
0.00936192
0.0079058
0.00668683
0.00567782
0.0048512
0.00417779
0.00362852
0.00317704
0.00280119
0.00248301
0.00220811
0.00196469
0.0525713
0.0485202
0.044255
0.0399477
0.035709
0.0316121
0.0277182
0.0240795
0.0207371
0.0177209
0.0150457
0.01271
0.0107008
0.00899651
0.00756986
0.00638992
0.00542373
0.00463801
0.00400092
0.00348307
0.00305851
0.0027055
0.00240651
0.00214779
0.00191888
0.0532738
0.0486516
0.0440598
0.0395532
0.0351891
0.0310174
0.0270873
0.0234433
0.0201203
0.0171389
0.0145047
0.0122107
0.010242
0.00857807
0.00719323
0.0060565
0.00513321
0.00438795
0.00378736
0.00330148
0.00290454
0.00257521
0.00229647
0.00205513
0.00184099
0.0541362
0.0489363
0.0439403
0.039161
0.0346224
0.0303507
0.0263756
0.0227263
0.0194244
0.01648
0.0138913
0.0116467
0.00972905
0.00811631
0.00678173
0.0056934
0.00481568
0.00411221
0.00354889
0.00309551
0.00272652
0.00242113
0.00216295
0.00193952
0.00174163
0.0549607
0.0492106
0.0437911
0.0387151
0.033987
0.0296092
0.0255885
0.0219355
0.0186573
0.0157536
0.0132157
0.011028
0.00916992
0.0076168
0.00633963
0.00530486
0.00447588
0.00381592
0.0032907
0.00287019
0.00252935
0.00224807
0.00201066
0.00180537
0.00162348
0.0557783
0.0494416
0.0435685
0.0381845
0.0332675
0.028788
0.0247261
0.0210732
0.0178226
0.0149643
0.0124833
0.0103598
0.00856944
0.00708354
0.00587022
0.00489394
0.00411707
0.00350267
0.00301674
0.00262972
0.00231726
0.00206002
0.00184307
0.00165534
0.00148912
0.0566734
0.0495889
0.0432145
0.0375253
0.0324369
0.0278724
0.023781
0.0201353
0.0169187
0.0141121
0.0116949
0.00964376
0.0079301
0.00651929
0.00537632
0.00446343
0.00374196
0.0031752
0.00272985
0.00237707
0.00209326
0.00186001
0.00166296
0.00149147
0.00133921
0.0575337
0.0495392
0.0426492
0.0366912
0.0314719
0.0268513
0.02275
0.0191194
0.0159428
0.013196
0.0108493
0.00887947
0.0072541
0.00592698
0.00486101
0.00401658
0.00335346
0.00283612
0.00243283
0.00211537
0.00186056
0.00165174
0.00147393
0.00131502
0.00117291
1.31607
1.28206
2.63561
4.02332
0.00183867
0.00280196
0.0429758
0.000778152
2.48748
0.00025238
2.24769
0.00546998
0.160339
0.00527749
0.0574507
0.000828219
2.21325
4.01207
0.000149832
0.0635196
0.02322
0.000603103
2.67288
0.0479124
0.0013544
0.00117311
0.00121279
0.033133
1.58079
2.27173
0.000254875
0.0011361
3.03379
0.130035
2.2717
0.000804222
0.159242
0.0580838
0.198377
0.00501221
3.85434
0.00124678
0.000699989
0.139441
0.0243947
0.000718831
3.34758
4.30823
1.8976
2.16281
3.087
3.63808
0.0306939
4.23735
0.0422745
2.54472
0.00457206
0.0239083
0.00213592
3.74156
0.00105525
2.81816
0.00192622
0.000766293
0.000756588
0.0890643
0.00202274
0.872702
0.19067
2.04348
2.68857
0.000702693
0.00111197
0.0610295
0.00252458
0.0225292
0.0556145
4.10234
0.00280422
4.18568
0.10594
0.00136613
0.000756376
2.19051
0.0013511
0.00121737
0.000816521
4.07707
3.08436
0.00751942
0.0238527
0.00343136
0.000220785
0.00576094
0.00135811
2.26939
0.00124971
2.48456
0.00258542
3.70699
0.0121112
3.82644
0.0139829
0.000689098
0.00188438
0.0183994
2.89509
0.0882294
0.00174946
2.28484
0.000673078
0.00265911
3.03044
0.000658436
0.0278607
1.86897
3.10216
0.00408611
0.0603622
0.00424224
0.000243491
0.00313926
0.0523344
0.00145581
3.16711
0.000740361
3.64159
0.0483594
0.00209734
4.29339
0.000805037
0.0596999
2.06337
0.195491
0.0400793
0.000865401
0.0257708
0.0077248
0.000855719
0.0683211
0.00046492
0.190391
3.77474
0.000365245
1.68657
0.000912819
3.66739
0.036962
0.000828912
2.16899
0.0224743
0.00315671
3.83317
0.0495437
0.00326102
2.13832
0.00120868
0.00410139
0.0544299
0.00106841
0.000644636
2.62508
0.000683651
2.64433
0.000353991
2.62904
0.00537217
0.00124794
0.00096824
0.00132682
0.00473779
0.000782971
0.829488
2.36648
0.00183617
0.0223911
0.0449268
1.81049
2.44081
0.00048401
0.0881174
0.00114699
0.0350604
0.0653082
0.0620928
0.00129629
2.83879
0.00116144
2.35678
0.000809918
4.14049
3.7359
1.81597
0.194135
0.0504707
2.54642
0.00237635
0.000599989
1.77536
1.43505
0.326686
0.00104105
0.00128604
0.00083987
0.0111856
0.000566689
0.0023614
0.0139269
1.97907
0.00315022
0.00190279
0.00368059
0.102082
0.0104075
0.0385261
4.00238
0.00188132
0.00102239
0.000936199
0.0102317
0.0111637
0.00144114
0.00349638
2.92956
2.40751
3.32639
0.00993377
2.229
0.00194275
0.00119794
1.99686
0.000786813
0.00126834
0.00147312
0.190858
0.000334059
0.0528769
0.0189449
0.0696779
0.0500279
0.000437051
0.00110825
0.000389499
0.0533735
0.000998818
0.000675613
0.00104975
0.0268543
0.000814384
0.000492153
0.00176454
0.0244955
0.00101771
1.8685
0.00200248
0.00127981
2.8444
0.0545601
0.0540282
0.000154485
0.532176
0.00209769
0.000714165
0.00291048
0.0587221
0.00159795
0.000461865
3.50239
0.0422747
0.00115797
0.0277475
1.7951
0.00258447
0.00108332
0.000149991
3.37455
0.00300157
2.36727
0.00474591
3.87572
0.104662
0.0259923
0.716909
0.000714829
2.49164
0.000902049
0.0200257
3.56216
3.17425
4.19931
0.0494549
0.000697115
0.00109451
3.33707
0.408409
3.97677
3.77461
0.00262931
0.00116324
3.08804
3.77457
0.000606746
0.0130514
0.000869799
3.63805
0.00038374
0.0231154
0.00114651
0.0682211
0.00121518
0.000704194
0.000359745
2.68003
0.00216227
0.00280206
0.233335
3.73972
0.00111566
0.00128885
0.427681
0.0548021
0.000720423
0.0167083
0.000249343
0.000823727
0.00153654
3.03013
0.0850822
0.00240092
0.024899
0.000345523
0.0515029
0.00896612
0.000271384
3.9996
0.00128176
0.00062675
0.000776068
1.6073e-05
0.614315
0.00342699
0.00631993
3.38499
0.000338487
0.0573313
0.00195928
0.00433423
0.00174635
0.000942473
3.12489
1.9245
0.000228468
0.00296924
0.0538467
3.39738
2.09926
0.586622
0.155147
0.000412981
3.37798
1.99897
2.29776
0.000622568
3.24029
0.000973942
0.0008705
0.000887354
3.95996
0.000688573
2.25776
0.000501569
0.0495314
1.57251
3.27865
0.156496
0.00205373
0.00380325
0.000294577
0.00143661
0.000329644
3.75075
0.000766516
3.14502
0.167792
0.164973
0.496916
0.000343053
0.0624803
2.0792
4.15217
0.0293634
0.000543984
0.0143522
2.83422
0.0745543
0.000187342
0.000401127
2.97076
0.0041627
1.60086
0.000737258
0.000679995
0.00142734
1.82991
0.00626739
1.77807e-06
0.0494268
0.0160607
0.352701
0.000446543
2.02107
0.00070651
3.09847
0.000846115
0.000752849
0.750724
1.99856
3.12673
0.00303168
0.00343098
0.00035216
0.00140152
0.00883755
0.0165247
0.00090127
4.01401
1.25982e-05
0.0173159
0.0008343
0.00104602
0.000814978
0.00125791
0.00746294
0.00298864
0.0481144
0.000858263
0.000661763
0.000783153
0.00162484
0.149538
0.000893785
0.050065
3.41662
0.261205
0.208099
3.54422
0.0225942
2.4492
0.0020183
0.00273809
3.23946
0.000619739
0.000681209
2.857
0.000351029
1.98061
3.16487
0.00107907
0.0299449
0.0471861
0.000698233
0.057064
1.93316
0.0981856
3.90329
0.000767012
0.00175697
2.99116
0.000818909
2.11697
0.0230277
0.000867239
2.27808
0.210655
0.00139979
0.139086
0.00603022
0.00105119
0.037636
0.0342151
0.0348978
0.153774
0.000143794
0.00572745
2.12743
0.00130819
0.00116629
0.000821432
1.72846
0.000534038
0.0498936
0.000724172
0.00341932
2.70896
0.000678494
0.00244805
0.0505737
0.000844843
0.000271979
2.23257
0.00066794
0.0486688
0.000753644
0.0424611
0.0448203
0.119485
0.000831396
0.00079677
0.0477349
0.00113985
0.000476399
0.0971169
0.00184946
0.00553172
0.00142207
3.92178
3.63025
2.07855
0.00227865
0.0210786
0.000214733
4.18475
0.0644219
4.79114
0.150531
0.000823891
3.97222
3.78955
0.000642124
0.000848158
0.0235888
0.00056252
3.10943
2.87508
0.00439601
0.376737
0.000670557
2.5501
1.8383
0.000741283
0.418221
2.2151
0.000582169
3.16999
0.00367544
2.75525
0.000649551
0.0091565
0.000826872
2.35187
0.152515
0.13042
0.00209875
1.90311
2.03904
3.88846
0.00315599
0.000303336
0.110338
2.13824
0.000957015
0.166163
0.00066648
0.144214
2.15735
0.000197951
0.0211507
0.00219622
0.00108888
0.677738
2.81899
0.000896934
0.0722391
0.00199478
0.00220592
3.0164
3.41004
2.1887
0.0106647
0.702713
0.0679511
0.0353098
0.00102211
0.000221411
0.000848175
2.94636
0.000550098
0.00296333
0.574167
0.000960013
0.0044802
0.00176272
0.000746865
0.0489791
0.000358654
0.00229323
0.13177
2.12227
0.00145758
0.00103324
3.40034
0.0341177
0.00115384
0.0180455
0.0467697
0.00196018
0.000943881
0.000770649
3.23042
0.000673775
0.000653372
0.169937
0.000661979
0.000940978
0.0155403
0.0276427
0.00247342
0.00408922
2.90787
0.000801248
0.000771945
0.000711519
0.000294674
0.00465338
0.00605688
3.6631
3.86103
0.0283428
2.79809
0.00480678
0.00125453
0.000899906
0.00166675
0.00090895
0.00411973
0.0290534
0.0108019
0.00374165
0.00286676
0.0475326
0.0205675
0.00799217
0.0898898
0.00058649
0.00242014
0.000854389
0.0416143
0.354622
3.62268
0.0488256
0.0536737
0.00448087
0.000232212
0.00253549
0.000859734
0.000644651
3.43978
0.000156972
0.0262817
0.000683416
2.33145
4.19644
2.17668
0.000288088
0.000855719
0.000918971
3.78513
2.54186
0.0627777
0.031424
0.00585759
0.000157434
0.00140183
3.72977
0.000583898
0.000799032
0.15814
0.000772409
0.000533181
0.000454733
0.00254052
0.0290177
0.0233235
0.00083472
0.000503021
0.0103563
0.000299938
1.71286
3.36041
0.00109083
0.052881
0.0036635
2.19578
0.000860942
0.000316981
0.000496369
0.00129821
0.645835
0.000846248
0.000460558
0.00211037
0.68217
0.00185086
0.000833175
0.000633631
3.95058
0.0508661
0.0252264
4.24144
0.0539284
1.79162
2.28686
0.000147922
0.00113059
0.000781747
6.77343e-06
0.000716306
0.10712
0.000896505
0.000730487
0.124746
0.000191632
0.000613287
0.0744437
0.000551304
0.0011679
0.000672325
0.0287584
0.0858552
3.83072
0.000160874
2.55791
0.0388519
1.7686
0.0269168
3.86549
3.14338
3.21103
0.00117835
0.000818248
0.000285842
0.533555
0.000669554
0.450358
1.61394
0.00027926
0.0568444
0.28085
0.00229599
0.000694999
0.000741133
3.68724
2.74568
0.000628247
0.0424216
0.0502862
0.0470951
2.74381
4.01984e-08
0.000514431
0.0584108
0.000385639
1.4838
0.376609
2.46353
0.0491741
0.00133562
0.0492953
0.00438441
5.02419e-05
0.0571734
0.00391783
0.00922329
0.00115279
0.00070604
1.04377
0.000829413
0.00165596
0.000635044
0.000719736
1.12955
0.0052694
3.73321
0.0557248
0.000542649
1.92317
0.000786895
0.066695
0.00179949
0.000237909
0.000497678
0.031597
0.0350245
0.000447763
0.000585596
3.17611
2.74995
0.0457539
0.000892953
0.0369891
0.379847
0.052102
3.3965
0.151873
0.00799743
0.000376337
2.71161
0.00265062
0.000753021
0.0222472
2.53464
2.54334
0.00139857
0.000935295
2.20022
0.000900998
2.68101
2.24954
0.000537876
0.00136475
2.43115
1.61557
1.48276
0.00036004
0.00104843
0.00160977
0.0355409
0.144832
0.000555845
0.000803929
0.00274203
0.044839
0.02718
0.277985
1.6176
0.000157764
0.000649783
4.08417
0.000168446
0.0318416
0.00188659
0.0299782
0.00162531
0.0039506
0.405706
0.000676502
0.000295266
0.000287804
0.0270159
0.0310242
4.04546
0.000886623
0.000764596
0.000665504
0.0664227
0.0676432
2.75247
0.00409186
0.257848
0.0557819
1.70778e-06
0.00202805
0.00395283
2.0243
0.00252522
0.0620372
0.000858601
1.56717e-05
0.0567462
0.000800124
5.12607
2.89086
0.0354915
3.77151
3.90669
3.64612
0.000173847
2.66209
0.0798307
0.000444281
0.0434848
0.000723075
0.00406099
0.0512427
0.000825523
0.00947199
0.0283297
3.00654
0.021819
0.00774693
2.63694
0.00616235
0.000887883
0.0476826
1.70854
0.537046
0.000245329
0.0361816
4.2573
2.42117
0.377893
0.0320674
2.05491
0.00526211
0.00126772
0.0250958
2.31046
0.00197517
1.85465
0.00363099
2.22286
0.000886293
0.0442643
1.4161
0.000489188
0.00313791
0.000251822
2.94304
0.635432
2.59705
1.79032
0.000947102
0.0419595
0.019498
0.0124182
1.56369
0.0227029
0.000604972
0.000843882
0.000784549
0.00411322
0.038091
2.25974
8.72778e-05
2.86979
0.000564136
0.0522371
0.000196971
0.000791512
0.000847255
2.92075
2.34392
0.0306046
0.0291219
0.00120921
0.00223726
0.0492334
0.000722804
0.514923
0.226443
3.37356
0.0024523
0.915341
0.0491062
0.000848707
0.000958835
0.00132201
3.42451
0.00336312
0.0103086
0.0514456
0.0507547
0.00183207
0.0148922
0.000980711
0.000634975
0.00221569
0.00181157
0.0266232
0.00115096
0.0643756
2.64777
0.0651034
2.93488
0.000676375
0.0746378
0.0332371
0.00778988
1.66421
0.00238314
0.00554747
3.21582
0.000862578
0.31313
0.00516976
0.00117781
1.93655
0.000377359
1.18255
0.00187921
0.0406763
0.043563
3.06593
0.00337991
0.0487899
0.00119662
1.03594
0.000822645
3.22121
0.0808731
0.358934
2.22994
0.0177419
3.21145
0.000728866
1.82596
0.0022809
0.000748566
0.00334715
0.0451438
0.0559676
0.00429133
0.000239915
0.0544136
0.000937691
0.000277192
0.00360887
0.00197499
0.000749063
4.25496
0.000931315
0.000700083
0.0502647
0.02757
3.62845
0.00320525
0.000340741
0.00155927
1.5497
0.00101528
0.00380713
3.74919
1.78594
0.13692
0.0012267
0.0145732
0.0276213
2.98431
0.00035252
0.000213434
0.00468105
0.000990817
0.00214132
1.83244
4.1103
4.74496
0.0292209
0.00123141
0.0494687
3.39344
0.0208819
0.0473167
0.000859766
1.74776
2.18244
3.39692
0.00080437
0.000794098
0.0150856
2.51243
0.000974356
2.68199
0.0115286
0.554455
1.90949
0.00361882
0.00639324
0.00536703
0.000232271
0.000237836
0.57201
1.64754
0.000152014
2.65694
0.00163208
0.00130198
0.00110097
0.000411094
0.0329614
0.0154223
0.0658702
0.0489686
0.00129194
0.000879805
1.78937
2.10669
0.000674054
0.00341183
0.000650376
2.04973
4.33518
0.0180896
3.81764
0.00120033
0.000183691
0.0679474
0.000756547
0.0108856
0.049892
0.00072531
0.000839556
0.000517929
0.0072372
0.0668017
2.83558
0.0485325
0.000185085
0.0170602
0.000546518
3.55585
3.7375
0.000423694
0.000189456
0.0566259
0.00201598
0.00229151
1.43986
1.63186
0.31288
0.000262681
0.00529853
0.0535799
1.65533
0.00644203
0.0293155
1.50219
2.75813
2.54372e-05
0.00110401
0.00559259
0.000577591
0.923822
0.0462627
0.000680073
0.0520221
0.000823628
0.000413617
0.000850825
0.0286345
0.00162473
3.19642
1.86668
3.39008
1.46099
0.499048
5.44951
0.00110395
3.44252
0.0364243
0.000801685
0.452878
0.000155331
0.0139069
0.000594827
0.000714826
0.00406139
2.53127
0.0019278
0.0255019
0.0493803
0.00573077
0.0496387
0.972596
3.37682
0.00255782
3.42636
2.48636
0.00513496
0.00169782
0.028822
0.493885
0.0182919
0.0464938
2.89999
0.000439771
0.00376293
0.00201537
0.0499696
3.65782
0.000892984
0.00644065
0.00133356
0.000664502
0.00167763
0.0368624
0.000205795
0.00682837
0.01276
1.9675
0.000266001
0.0881388
2.26424
0.000787597
0.0269514
0.0501337
2.9685
0.0933038
1.3888
0.0688791
0.000670747
4.24311
2.45981
0.000981923
0.0324251
0.0584559
0.000401039
0.00133423
0.000469956
0.0724495
0.00113911
0.142973
0.000223307
0.049661
2.04451
0.0497607
1.89118
0.473833
0.00123965
0.0538678
0.0465567
0.00497893
0.000779644
0.0518728
2.21505
0.000472967
0.132051
0.0045246
0.000824417
0.0243444
0.0105661
0.00134556
0.000714329
2.75444
0.0531888
0.000419355
0.000760083
0.000308919
0.000672085
0.00078564
1.59443
0.000674987
0.392056
2.49949
0.0400251
8.11375e-05
0.0509218
1.5576
0.0667296
1.81258
0.00974135
0.284409
3.35817
3.57581
0.00112213
2.24863
0.000362753
2.4813
3.87136
0.000164278
0.168359
0.0526793
4.12036
0.109471
0.0217209
0.000603228
0.04137
2.27601
2.21838
3.439
0.00088946
0.0660322
0.000195561
2.3987
0.0119236
0.00180904
0.000768608
0.0558592
0.00444346
0.00491248
0.0703527
0.000631042
1.84644
0.00319579
0.00047125
0.639588
0.0400596
0.00644527
0.0399058
0.0519312
0.000944972
0.0349755
2.54757
0.000260208
0.03077
0.00445357
1.89241
0.281781
0.00126035
3.91818
0.000225609
0.024906
2.51578
0.000385361
0.00179461
0.0226216
0.0380249
0.0468612
0.00218051
4.09664
0.00687611
0.0355997
3.9994
0.0197955
0.000832563
0.476063
0.000754974
0.000797791
0.000260179
0.0522026
2.38057
0.000877404
2.93597
0.071769
0.000783374
0.231787
0.00067106
0.00439417
0.22024
0.000585008
0.000528334
2.00846
0.00340318
0.000496634
0.000642447
1.97473
2.27362
0.0104463
0.000294275
0.00170105
0.215719
4.04221
0.000741562
0.00208275
0.0189861
3.12616
0.00215797
0.29167
0.231352
0.00072419
0.0320461
3.51395
0.000701089
0.0112659
0.000454578
2.81521
0.000882776
0.000959453
0.00646242
0.0449535
2.32225
0.00357587
2.92155
0.00390224
2.37258
0.000424928
0.0618582
0.027982
0.066542
1.91765
0.00581691
0.122546
0.000981572
0.000745364
0.000900356
2.31336
2.64437
0.000248055
0.000374865
1.17597
0.00073036
0.00503259
0.00284083
3.94474
3.56702
0.0485108
3.15522
0.000793175
0.000717029
0.206509
0.0745857
1.84768
0.00179629
0.00149467
0.00171224
0.00293448
0.000789713
0.00216134
0.000974292
0.0261728
3.66615
2.41025
0.000180548
0.0332175
0.0343329
2.79401
0.000680455
3.54481
1.64607
3.70307
0.00055559
0.0501843
0.000886253
0.000738548
0.000428582
0.0015313
0.000159638
1.53686
3.38266
0.000525197
0.0231594
0.0701369
0.104799
2.12276
4.34323
0.00214951
0.00227897
0.00337775
0.0178153
0.12726
0.00276186
2.05697
0.1213
0.000289673
0.00794776
0.000876329
0.0527298
0.000931304
0.00183445
0.000252447
0.00100735
0.00896106
0.0402546
0.000624872
3.33558
0.000886719
0.000671148
0.499903
0.00708438
0.000817803
2.98534
2.18026
0.000724876
2.37255
0.000197247
0.0499127
0.000602203
0.000906681
0.000680068
0.000725587
2.47111
0.00506488