/*--------------------------------*- C++ -*----------------------------------*\
  =========                 |
  \\      /  F ield         | OpenFOAM: The Open Source CFD Toolbox
   \\    /   O peration     | Website:  https://openfoam.org
    \\  /    A nd           | Version:  10
     \\/     M anipulation  |
\*---------------------------------------------------------------------------*/
FoamFile
{
    format      ascii;
    class       volScalarField;
    location    "1800";
    object      k;
}
// * * * * * * * * * * * * * * * * * * * * * * * * * * * * * * * * * * * * * //

dimensions      [0 2 -2 0 0 0 0];

internalField   nonuniform List<scalar> 
10435
(
2.25165
2.71075
2.38392
2.3967
2.58696
2.89539
2.25578
2.06743
2.14109
2.81813
2.72331
2.27125
2.8536
1.57465
1.68576
2.11619
1.46653
3.08406
2.17074
2.30708
2.08418
2.39017
2.17966
2.20621
2.60338
0.729311
0.930303
2.60758
0.87209
2.96275
2.27575
2.71238
2.07485
0.894601
2.1033
2.40725
2.10526
0.963895
0.588802
2.18411
3.09402
2.25719
1.06703
2.39015
2.13194
2.19224
2.97255
0.97236
2.14152
2.37152
2.07612
2.48747
0.571215
0.804154
0.62336
0.815313
2.13136
0.988607
1.20574
2.14237
0.609997
2.65603
0.974372
2.46367
2.14823
2.46594
1.08206
1.08183
2.07393
2.22994
0.797123
0.855086
0.802961
2.34822
1.79239
1.13292
2.25324
2.19417
2.08338
1.77306
2.35402
2.14595
0.554182
0.812987
2.32992
2.12726
2.20513
2.44931
1.86761
2.30006
2.45744
2.45683
2.21542
1.977
2.37215
2.21677
2.41304
1.73469
1.32357
2.43123
1.78682
2.78314
2.09422
2.4205
2.80364
2.40021
2.27223
2.36773
2.29621
1.87863
2.36586
2.77366
2.06581
1.97639
2.48775
2.39076
2.38101
2.27562
2.57113
2.34051
2.33362
1.02116
2.39893
1.72323
2.82218
0.670383
2.37438
1.16893
2.46622
0.954522
1.42472
2.84981
2.0881
1.66326
0.908491
0.512485
2.34767
2.38091
2.54409
2.37719
2.34871
2.19894
1.00469
2.28306
2.38399
1.50889
2.06672
2.61873
1.42568
2.22491
0.874878
2.12961
2.26383
2.22343
2.64635
0.78953
2.79638
2.48829
2.73534
2.89149
2.17671
1.54975
2.56038
2.31419
1.90532
2.3845
2.09074
2.33302
2.24723
2.3579
2.54812
0.676595
0.853418
1.62044
2.20951
2.88852
2.55511
1.2151
2.34872
0.927105
2.72853
2.83554
2.24873
0.639876
2.16944
0.893341
0.990114
2.14522
2.60401
2.35449
2.29039
0.542204
0.918941
2.57379
2.77645
2.09818
1.29975
1.96714
1.1028
2.10584
1.88261
0.944798
2.72132
0.983938
2.57166
2.55668
2.5736
2.35872
0.989458
2.36965
0.781577
2.24195
2.29355
2.27673
0.913401
1.52423
2.00743
0.618842
0.738145
1.43724
0.896381
1.29101
1.0496
1.58116
0.769861
2.08759
0.658202
1.80253
2.3261
1.23507
1.17924
2.08433
0.695364
2.15472
0.991138
1.35928
2.17127
0.776114
2.20316
2.38485
2.36366
0.710193
0.638893
0.819947
2.57208
2.10418
1.99297
2.07644
0.695046
2.84147
0.730041
1.99682
2.88521
2.34668
2.1125
2.48532
0.640816
2.15242
0.728443
0.938164
2.19938
2.46541
0.716063
2.28142
2.09952
1.22377
2.32177
2.23533
0.593441
2.51295
2.25816
2.05639
2.07896
2.5723
0.785359
2.30874
0.952281
2.63214
2.11486
2.05827
2.80258
1.23137
2.33997
1.69525
2.09778
0.567864
2.59904
0.621695
0.820694
0.911891
1.75541
2.87712
0.988879
2.0623
0.59856
0.784811
1.3928
2.18196
2.66684
2.39069
1.10515
2.23004
2.42522
0.748406
2.69416
1.63267
1.34168
2.18183
2.41897
0.824152
2.31679
0.889561
2.73714
2.62315
2.12365
0.780419
0.652105
2.24515
1.12214
2.30329
2.83455
0.924732
2.18885
0.531183
2.06924
2.70441
0.837681
2.51273
1.13083
0.979645
2.1468
0.948016
0.823166
2.3546
2.18586
1.01309
0.778077
0.726257
0.851341
0.826345
0.874185
0.82524
0.595904
0.854572
0.823038
0.859562
1.04083
1.00781
0.521323
2.09309
0.829511
2.62024
0.910663
2.60665
2.08628
2.14326
2.86733
2.27661
0.81588
0.861167
0.749086
0.686117
0.809781
0.578501
0.894207
0.901256
1.02719
2.24225
0.880664
2.1151
0.653844
0.933068
2.94062
2.15118
0.569881
0.933199
0.962597
0.967895
0.854482
0.776343
1.09513
0.635146
2.069
1.05732
2.06343
2.10578
2.70218
2.79453
2.12498
2.51584
2.1073
1.40068
0.763108
0.858165
0.796014
2.43839
0.837235
2.9443
1.05838
0.93317
0.950878
0.976678
0.675866
2.18519
0.965164
2.06077
2.21237
0.669363
0.819008
1.00264
2.15658
1.01529
0.851384
0.734836
0.812421
1.01425
0.875065
2.48039
0.794209
0.821189
0.876933
0.912716
3.08307
0.573943
0.525721
2.14078
0.854529
0.164031
0.162193
0.158008
0.152232
0.145401
0.137749
0.12958
0.121178
0.112878
0.163971
0.161382
0.156915
0.151114
0.144364
0.136972
0.129219
0.121442
0.114038
0.163648
0.160595
0.155936
0.150127
0.143529
0.136437
0.129133
0.121946
0.115237
0.163444
0.160089
0.155273
0.149488
0.143076
0.136307
0.129449
0.122788
0.116616
0.163669
0.160092
0.155139
0.149402
0.143189
0.136746
0.130308
0.124106
0.118333
0.164598
0.160829
0.155753
0.150072
0.144057
0.137928
0.131881
0.126088
0.120673
0.166517
0.162554
0.157345
0.151711
0.145876
0.140039
0.134353
0.128949
0.123911
0.169791
0.165522
0.160141
0.154528
0.148848
0.14327
0.137911
0.132868
0.128209
0.174742
0.169933
0.164345
0.158725
0.15317
0.147812
0.142732
0.137992
0.133632
0.181311
0.175881
0.170125
0.164492
0.159033
0.153847
0.148986
0.144477
0.140306
0.189114
0.183426
0.177649
0.172018
0.166622
0.161549
0.156836
0.152484
0.148441
0.197764
0.192759
0.187143
0.181515
0.176123
0.171081
0.166432
0.162164
0.158235
0.208621
0.204417
0.198911
0.1932
0.187702
0.182576
0.177883
0.173618
0.169746
0.223184
0.218953
0.213225
0.207234
0.201467
0.196109
0.191237
0.186858
0.182941
0.241994
0.2366
0.230188
0.223665
0.217442
0.21169
0.206489
0.201846
0.1977
0.264599
0.257153
0.249693
0.242423
0.235575
0.22928
0.223615
0.218596
0.214179
0.289111
0.280046
0.271492
0.263369
0.25578
0.248825
0.242589
0.237099
0.232366
0.314863
0.30489
0.295395
0.286407
0.278008
0.270308
0.263403
0.257339
0.252132
0.341975
0.331604
0.321364
0.31154
0.302296
0.293786
0.286128
0.279388
0.27359
0.370796
0.360335
0.34949
0.338865
0.328765
0.319411
0.310952
0.303474
0.297029
0.401766
0.391358
0.379942
0.368529
0.357585
0.347397
0.338135
0.329906
0.32275
0.435468
0.42502
0.412912
0.40068
0.388937
0.377984
0.367989
0.359061
0.351221
0.472984
0.46171
0.448532
0.435414
0.422973
0.411423
0.400875
0.391424
0.383106
0.515961
0.501647
0.486716
0.47269
0.45978
0.447946
0.437178
0.427528
0.419009
0.566212
0.544256
0.527023
0.512333
0.49939
0.487766
0.477253
0.467859
0.458719
0.266661
0.266524
0.266883
0.267732
0.269084
0.270936
0.273289
0.276126
0.279438
0.283192
0.287361
0.291909
0.29678
0.301927
0.307274
0.312752
0.318281
0.323773
0.329136
0.334277
0.339089
0.343463
0.347274
0.350355
0.352483
0.353489
0.353457
0.352436
0.350355
0.346972
0.342511
0.337078
0.330675
0.323431
0.315461
0.306881
0.29781
0.288367
0.278677
0.268865
0.259054
0.249367
0.239914
0.230797
0.222111
0.213935
0.206332
0.199359
0.193041
0.187403
0.182448
0.178163
0.174536
0.171538
0.169146
0.167328
0.16606
0.165314
0.165066
0.265224
0.265417
0.266057
0.26715
0.268698
0.270701
0.273158
0.276061
0.279397
0.283144
0.287275
0.291753
0.296532
0.301559
0.306771
0.312097
0.317457
0.322767
0.327936
0.332869
0.337466
0.341625
0.345239
0.348188
0.350336
0.351524
0.351626
0.35057
0.348337
0.344981
0.340606
0.335282
0.329066
0.322029
0.314258
0.305854
0.296928
0.287599
0.277994
0.268238
0.25846
0.248781
0.239319
0.230181
0.221463
0.213246
0.205595
0.19856
0.19217
0.18644
0.181373
0.17697
0.173217
0.170085
0.167546
0.165568
0.16412
0.163177
0.162702
0.260751
0.260991
0.26167
0.262794
0.264368
0.266392
0.268861
0.271765
0.275091
0.278816
0.282912
0.287343
0.292066
0.297028
0.302168
0.307417
0.312699
0.317931
0.323023
0.327882
0.332408
0.336497
0.340037
0.342905
0.344969
0.346103
0.346203
0.345205
0.343085
0.339865
0.33561
0.330393
0.324284
0.317359
0.309706
0.301423
0.292616
0.283401
0.2739
0.264239
0.254543
0.244935
0.235533
0.226444
0.217767
0.209582
0.201957
0.19494
0.188562
0.182841
0.177775
0.173357
0.169568
0.166386
0.163785
0.161738
0.160219
0.159206
0.158665
0.253054
0.253311
0.254002
0.255133
0.256707
0.258723
0.261175
0.264053
0.267341
0.27102
0.27506
0.279427
0.284078
0.288964
0.294023
0.29919
0.30439
0.309541
0.314553
0.319332
0.323777
0.327784
0.331238
0.334024
0.336022
0.337121
0.337225
0.336274
0.334242
0.331144
0.327025
0.321947
0.315981
0.309206
0.301711
0.29359
0.28495
0.275904
0.266571
0.257076
0.247541
0.238088
0.228833
0.219884
0.211336
0.20327
0.195751
0.188828
0.182533
0.17688
0.171873
0.167503
0.163753
0.1606
0.158021
0.155986
0.154472
0.153456
0.152907
0.243113
0.243392
0.244096
0.245232
0.246804
0.248808
0.25124
0.25409
0.257343
0.260976
0.264964
0.269271
0.273855
0.278668
0.28365
0.288736
0.293852
0.298916
0.303839
0.308528
0.31288
0.316791
0.32015
0.322848
0.324775
0.325833
0.325941
0.325042
0.323111
0.32015
0.316193
0.311288
0.305503
0.298915
0.29161
0.283685
0.275245
0.2664
0.257271
0.24798
0.238648
0.229395
0.220336
0.211575
0.203208
0.195313
0.187955
0.18118
0.175021
0.169492
0.164596
0.160324
0.156658
0.153577
0.151055
0.149066
0.147585
0.14659
0.146051
0.231069
0.231332
0.232018
0.233134
0.234681
0.236659
0.239061
0.241878
0.245093
0.248684
0.252625
0.256879
0.261406
0.266156
0.27107
0.276082
0.28112
0.2861
0.290935
0.295532
0.29979
0.303608
0.306879
0.309499
0.311368
0.312398
0.312515
0.311669
0.309834
0.307008
0.303214
0.298494
0.292911
0.286538
0.279459
0.271768
0.263568
0.254967
0.246084
0.237041
0.227958
0.218951
0.210134
0.201609
0.19347
0.185795
0.178645
0.172068
0.166095
0.160741
0.156007
0.151885
0.148356
0.145397
0.142983
0.141089
0.139687
0.138757
0.138269
0.217252
0.217479
0.218127
0.219204
0.220713
0.222653
0.225019
0.227801
0.230982
0.23454
0.238445
0.242662
0.247147
0.25185
0.256713
0.26167
0.266646
0.27156
0.276323
0.280843
0.285023
0.288762
0.29196
0.294522
0.29635
0.297365
0.297502
0.296716
0.294978
0.292283
0.28865
0.284117
0.278744
0.272603
0.265772
0.258344
0.250415
0.242091
0.233495
0.224742
0.215948
0.207229
0.198692
0.190442
0.182569
0.175152
0.168251
0.161914
0.15617
0.151033
0.146504
0.142575
0.139225
0.136432
0.134169
0.132408
0.131124
0.130292
0.129885
0.201699
0.201833
0.202394
0.203393
0.204836
0.206723
0.209049
0.211804
0.214968
0.218516
0.222418
0.226631
0.231108
0.235796
0.240637
0.245571
0.250525
0.255411
0.260144
0.264625
0.268756
0.27244
0.275591
0.278123
0.279934
0.280959
0.281134
0.280423
0.278787
0.276216
0.272734
0.268375
0.263209
0.257312
0.250741
0.243595
0.235967
0.227952
0.219684
0.211263
0.202802
0.19441
0.186192
0.17825
0.170682
0.163558
0.156948
0.150895
0.145423
0.140546
0.136263
0.132566
0.129436
0.126851
0.124785
0.123207
0.12209
0.121409
0.121133
0.184396
0.184352
0.184759
0.185643
0.187013
0.188866
0.191183
0.19393
0.197116
0.200746
0.204731
0.209017
0.213541
0.218236
0.223075
0.227994
0.232959
0.237924
0.242724
0.24722
0.251328
0.254968
0.258091
0.26061
0.262438
0.263504
0.26376
0.263161
0.26164
0.259168
0.255808
0.251609
0.24664
0.240992
0.234717
0.227834
0.220471
0.212847
0.204995
0.196956
0.188876
0.180865
0.173014
0.165415
0.158156
0.151348
0.145055
0.139357
0.134251
0.129693
0.125675
0.122213
0.119311
0.116951
0.1151
0.113738
0.112839
0.11237
0.112298
0.829871
0.778528
0.732662
0.688825
0.645921
0.603576
0.562014
0.521693
0.483088
0.446709
0.413629
0.384656
0.36003
0.339457
0.321907
0.307114
0.295304
0.286396
0.279963
0.275463
0.272403
0.270341
0.268864
0.26757
0.265989
0.79112
0.761726
0.724489
0.684153
0.642531
0.600507
0.558799
0.518121
0.479177
0.442721
0.409532
0.380133
0.354741
0.333307
0.315556
0.301206
0.289995
0.281604
0.275627
0.271595
0.269031
0.267504
0.266633
0.266081
0.265523
0.784246
0.754012
0.717891
0.678299
0.636809
0.594514
0.552367
0.511263
0.47204
0.435467
0.402164
0.372548
0.346846
0.325117
0.307265
0.293068
0.282188
0.274202
0.268646
0.265034
0.262892
0.261778
0.2613
0.261117
0.260938
0.784353
0.749953
0.711919
0.671278
0.629057
0.586185
0.543581
0.50215
0.462734
0.426058
0.392675
0.362962
0.337153
0.315346
0.297498
0.283409
0.272722
0.26498
0.259682
0.256324
0.254421
0.253529
0.253253
0.253251
0.253212
0.786087
0.747583
0.706781
0.664242
0.620683
0.576868
0.533614
0.491754
0.452066
0.415214
0.38171
0.351915
0.32606
0.304254
0.286459
0.272468
0.261918
0.254332
0.249188
0.245965
0.24417
0.243356
0.243134
0.24318
0.243225
0.787418
0.745246
0.701542
0.656825
0.611683
0.566746
0.522713
0.480323
0.440277
0.403183
0.369523
0.339649
0.313785
0.292025
0.274314
0.260428
0.249986
0.242497
0.237427
0.23424
0.232442
0.231591
0.231306
0.231276
0.231245
0.788339
0.742564
0.695885
0.6489
0.602089
0.555944
0.511037
0.468022
0.427536
0.390136
0.356287
0.326334
0.300485
0.278807
0.261212
0.247447
0.237106
0.229686
0.224641
0.221428
0.219546
0.218554
0.218076
0.217815
0.217558
0.789015
0.739249
0.689507
0.64028
0.591833
0.544473
0.498646
0.45493
0.413935
0.376176
0.342105
0.312074
0.286281
0.264725
0.247286
0.23367
0.22344
0.216081
0.211042
0.20777
0.205751
0.20454
0.203747
0.203056
0.20231
0.78893
0.734857
0.682136
0.630836
0.580891
0.532367
0.485619
0.441128
0.399552
0.361389
0.327049
0.296945
0.271279
0.249903
0.232673
0.219253
0.209153
0.201859
0.196838
0.193518
0.19135
0.189911
0.188705
0.187258
0.185573
3.04266
3.00227
3.40217
5.23589
0.14654
0.169202
1.35014
0.109301
3.26189
0.112443
2.627
0.180478
1.31978
0.183551
1.52073
0.178575
2.81228
5.25409
0.104828
1.09993
0.84478
0.176658
3.05622
0.444934
0.0942663
0.143645
0.0936199
0.503774
3.08998
2.80665
0.10925
0.153
4.33743
1.36102
2.78712
0.1302
1.55155
1.52634
1.72077
0.215509
4.22715
0.0477211
0.161467
1.06348
0.399713
0.210752
3.33722
3.99778
3.18858
3.85656
3.16341
4.03502
0.866858
5.41111
1.31668
3.33337
0.172121
0.832249
0.119011
3.92357
0.150075
3.56073
0.146239
0.189912
0.111746
0.907117
0.161461
1.80669
1.41467
3.5687
3.48609
0.199519
0.114492
1.12725
0.116522
0.835109
1.19804
4.03224
0.130747
5.38407
1.25594
0.174295
0.125924
2.50186
0.142806
0.153257
0.110114
4.05629
4.34683
0.255904
0.357512
0.190932
0.121797
0.185818
0.123025
2.65424
0.145388
2.762
0.0985608
3.91742
0.319993
4.2526
0.345262
0.202286
0.112472
0.429567
3.23819
1.19048
0.058452
2.82883
0.181458
0.0940912
3.43037
0.198207
0.850667
3.18333
4.03668
0.202257
0.981807
0.108503
0.0168898
0.103456
0.455915
0.0960861
4.3773
0.160321
4.05354
1.0376
0.121927
3.9977
0.123966
1.1291
3.54076
1.7861
0.604499
0.109911
0.395964
0.251228
0.149939
1.10943
0.169334
1.58669
3.92945
0.0225372
3.12654
0.192862
4.95765
1.03027
0.176985
2.71036
0.594343
0.193913
5.07443
1.54484
0.11803
2.47474
0.101968
0.20339
1.28463
0.144899
0.157216
3.40301
0.16546
2.87677
0.137045
2.80588
0.186616
0.0918062
0.209645
0.105703
0.174056
0.196394
1.7515
2.62707
0.155694
0.468353
1.1255
3.32887
3.3942
0.171879
1.41897
0.149746
0.884363
1.35306
0.80525
0.0983607
2.94102
0.0470889
3.99869
0.166609
3.99997
3.92495
3.32791
1.54086
1.51484
4.1188
0.112107
0.174124
3.16023
3.05541
1.78581
0.234873
0.167911
0.168762
0.495177
0.133074
0.168645
0.340431
3.27878
0.188457
0.112528
0.136623
1.45208
0.475043
0.686508
4.20995
0.129567
0.107626
0.235994
0.301786
0.279748
0.0554031
0.117508
3.71204
3.60557
4.0879
0.268151
2.84055
0.0610221
0.118995
2.3706
0.132301
0.149157
0.121329
1.676
0.119351
1.3418
0.369823
1.39233
1.58279
0.115281
0.149429
0.138
0.709909
0.111743
0.11307
0.155694
0.463575
0.177171
0.135773
0.056512
0.496672
0.137487
3.21141
0.137049
0.0932648
3.26119
1.21129
1.30118
0.104922
1.30598
0.125158
0.149086
0.113254
1.14313
0.0980697
0.131833
4.78025
1.34429
0.0916827
0.905776
3.30485
0.106665
0.104057
0.1071
4.6814
0.181512
3.08609
0.177185
3.98811
0.993533
0.613226
1.56895
0.210119
3.41314
0.159183
0.449259
4.78138
3.31898
4.0104
1.56443
0.170601
0.0382858
3.40689
2.08947
4.241
4.17453
0.174286
0.147686
3.70085
3.96205
0.15567
0.270476
0.172763
4.17554
0.133046
0.843818
0.137742
1.10684
0.171957
0.201229
0.153576
4.17187
0.121345
0.104345
1.58328
3.61109
0.141306
0.0955148
2.12012
1.29121
0.152289
0.287094
0.108546
0.11236
0.0995987
3.99949
1.19506
0.169267
0.843314
0.135242
1.51506
0.246747
0.114606
4.09383
0.158359
0.129307
0.132192
0.00437204
1.42802
0.129129
0.199278
3.80649
0.149373
1.1455
0.129958
0.192345
0.129232
0.108201
3.13307
3.43621
0.122415
0.0771505
1.31061
3.46182
3.27541
2.20237
1.09673
0.139158
3.28033
3.32243
2.76532
0.1339
4.05305
0.0429087
0.106429
0.200512
3.79922
0.145274
3.94642
0.178276
1.53423
3.12676
4.03183
1.31027
0.0999411
0.108595
0.135311
0.14876
0.117674
4.20029
0.188281
4.37261
1.16283
1.1351
2.1854
0.137603
1.09816
2.5374
4.00084
1.03474
0.13315
0.352767
4.16434
1.35194
0.10729
0.13442
4.31315
0.204006
3.10975
0.108044
0.163183
0.142662
3.60266
0.199345
0.00144495
1.41231
0.368706
1.53124
0.115623
3.54292
0.145921
3.69773
0.147052
0.145501
1.56857
3.21062
3.13808
0.180778
0.190369
0.139527
0.150184
0.268964
0.372964
0.205895
4.01247
0.00352336
0.308969
0.128644
0.152122
0.164632
0.0942112
0.258462
0.134876
1.5208
0.195424
0.180965
0.0274634
0.130083
0.535862
0.141218
1.58136
3.50843
1.35726
1.47341
4.31601
0.410266
3.76417
0.115053
0.128723
4.02066
0.149875
0.163139
3.58764
0.151821
3.53873
3.1429
0.1535
0.383165
1.07472
0.172993
0.780611
3.46458
1.40518
3.99623
0.102907
0.11536
3.72312
0.13899
2.58359
0.439342
0.102882
2.75701
0.654968
0.0975214
1.32575
0.239408
0.098523
1.05271
1.0042
0.70091
1.70588
0.0145496
0.186966
2.46066
0.132032
0.172292
0.215792
3.38941
0.178224
1.48895
0.170405
0.105953
4.09364
0.142154
0.133172
1.48138
0.1584
0.125716
3.90987
0.159807
1.53528
0.146748
0.615991
1.10633
1.37765
0.166148
0.165934
1.40615
0.154954
0.155627
1.27515
0.155978
0.230121
0.0956505
3.77613
4.25298
3.24126
0.0998696
0.80831
0.123786
4.00972
1.10293
5.44051
1.41357
0.221496
4.00285
4.36011
0.135105
0.20951
0.477266
0.184275
4.4001
3.86075
0.108019
1.59661
0.163382
3.46094
3.20192
0.174886
2.11933
2.78194
0.171584
3.4471
0.0913854
3.61997
0.147601
0.248024
0.158691
3.0554
1.60508
1.65772
0.122074
3.24684
3.2324
3.72667
0.113721
0.14268
1.15499
3.36815
0.132371
1.72261
0.164106
1.29853
2.71547
0.10788
0.793438
0.120177
0.15384
1.53613
4.22317
0.230778
1.53892
0.122344
0.148363
3.43504
3.32553
3.41094
0.274898
1.58
1.13416
0.880783
0.231162
0.125226
0.114066
4.29744
0.165735
0.170727
2.10633
0.224987
0.211891
0.163872
0.18639
1.48613
0.153356
0.123212
1.31851
3.26057
0.135164
0.146917
3.8174
0.504516
0.0501168
0.308164
1.02946
0.139653
0.160562
0.128647
4.47249
0.150582
0.160971
1.69424
0.112585
0.205779
0.386111
0.864012
0.13944
0.189345
3.76426
0.200933
0.10076
0.150844
0.140524
0.24953
0.198084
3.90527
3.58553
0.465264
4.23015
0.17441
0.0921685
0.0996921
0.0842159
0.193677
0.107679
0.898459
0.276621
0.116803
0.177357
1.40112
0.766694
0.223778
0.902711
0.169274
0.16031
0.116954
0.425958
1.55563
3.8942
1.49191
1.32106
0.116957
0.111473
0.0677666
0.226651
0.124121
3.3494
0.106816
0.8768
0.141563
3.47357
5.36858
2.55699
0.0183795
0.100683
0.111502
4.35672
3.81828
0.765384
0.866182
0.194391
0.109278
0.139113
3.9406
0.0321362
0.145231
1.72555
0.126777
0.183377
0.123141
0.104302
0.868178
0.321029
0.132063
0.13302
0.255959
0.134837
3.16041
3.62232
0.154632
1.44813
0.188101
2.63317
0.117584
0.145385
0.136882
0.137288
2.17198
0.154522
0.15596
0.118511
1.52763
0.141529
0.218567
0.194144
3.95541
1.45178
0.542213
4.0114
1.52489
3.47348
2.78837
0.106315
0.101189
0.101138
0.00305565
0.166226
0.99433
0.185353
0.125937
1.20677
0.11809
0.121631
0.620789
0.143961
0.13818
0.109339
0.540155
1.24211
4.30467
0.108745
3.48084
1.28051
3.28529
0.886964
4.34065
3.28634
4.48767
0.103062
0.173366
0.0193839
1.29463
0.157952
2.10226
3.36286
0.137692
1.27527
1.39872
0.132619
0.109883
0.143914
3.4667
3.68721
0.126133
1.37093
1.51861
0.948828
3.66755
0.000152397
0.135358
0.606387
0.0260242
3.24849
1.58071
2.90236
1.51161
0.0954357
1.51671
0.107708
0.0088086
0.748876
0.199537
0.276257
0.145579
0.161514
2.12663
0.173427
0.117736
0.158749
0.163646
2.20282
0.218205
3.9625
1.5179
0.167517
3.42062
0.195286
1.12104
0.161833
0.128552
0.177549
0.967278
0.634209
0.0297654
0.18727
3.17963
3.71615
1.20634
0.151832
1.05403
2.00859
1.44247
4.1615
1.69895
0.23002
0.156455
3.07261
0.0918308
0.10553
0.364473
4.12217
3.33909
0.152138
0.131379
3.85602
0.0975583
3.56063
3.70464
0.179981
0.149819
3.14806
3.23233
3.21321
0.134825
0.140693
0.0779197
1.03123
1.5588
0.147192
0.0989728
0.14073
1.19831
0.262435
0.93793
3.41056
0.108572
0.147059
4.77553
0.110669
0.938845
0.0740474
0.941766
0.159705
0.115378
2.03943
0.194767
0.14083
0.126427
0.531693
0.939035
4.07632
0.113589
0.139442
0.155691
1.52741
1.1161
3.58724
0.107831
1.64415
1.52802
0.00103923
0.109348
0.16637
2.38237
0.177855
1.17392
0.189042
0.0033362
1.39426
0.169566
5.61729
4.14777
1.00803
3.95087
3.94655
3.45722
0.111215
4.16939
1.54376
0.168649
1.32649
0.128316
0.167329
1.09459
0.153395
0.289854
0.902226
3.87824
0.199295
0.159453
4.18073
0.203701
0.174118
1.40568
3.31314
2.19889
0.130591
0.421598
4.01093
2.87336
2.05722
0.919913
3.8073
0.26432
0.100337
0.888887
3.33735
0.160847
3.11413
0.214125
3.66903
0.193862
1.11005
3.13961
0.0249812
0.153598
0.132013
3.62371
2.10715
3.56226
3.1555
0.231072
0.564133
0.766107
0.31411
3.31601
0.823325
0.13401
0.165102
0.154216
0.114483
1.08166
2.68422
0.0138099
3.60353
0.188229
1.35377
0.119444
0.124657
0.107465
3.8892
3.51599
0.478589
0.926902
0.153029
0.130156
1.5474
0.12536
2.15908
1.85763
4.26449
0.0858747
1.85961
1.55311
0.177217
0.219297
0.165865
4.29736
0.18799
0.291411
1.35467
1.4429
0.116216
0.322051
0.133156
0.190884
0.12575
0.13349
0.872476
0.119356
0.504687
3.48951
1.11077
3.94383
0.166119
0.520918
0.915867
0.163621
3.11264
0.154633
0.202465
3.6304
0.186724
0.977584
0.250599
0.0918307
3.2464
0.122067
2.23109
0.100234
1.32058
1.40051
4.06549
0.11337
1.25473
0.154448
2.04934
0.180692
3.78161
1.4411
1.02856
2.80421
0.229144
3.20825
0.150028
3.21892
0.183649
0.102685
0.188156
1.15131
1.52846
0.104017
0.129382
1.11054
0.137246
0.13696
0.112924
0.0948143
0.178604
3.99631
0.205872
0.161606
1.50033
0.518916
3.44263
0.0997407
0.149966
0.149106
2.63842
0.223869
0.167435
4.40736
2.91717
1.04689
0.143294
0.326981
0.98733
3.66075
0.133226
0.123211
0.212329
0.219172
0.161918
3.09597
3.99733
5.7371
0.918098
0.149867
1.56175
4.33485
0.442131
1.09249
0.180777
3.33209
2.67764
3.30615
0.145519
0.149889
0.38244
3.54485
0.233875
3.58738
0.280475
1.36075
3.47637
0.14853
0.232379
0.21275
0.114283
0.109014
1.28786
3.30092
0.107084
4.18319
0.159491
0.152076
0.117519
0.120236
0.893605
0.208988
1.13097
1.16722
0.134661
0.203214
3.19091
2.49032
0.134493
0.181105
0.194469
3.37391
5.47741
0.419593
3.97209
0.140535
0.113536
1.02005
0.141464
0.473571
1.55538
0.140453
0.107295
0.0324435
0.218004
1.33542
3.83705
1.23857
0.115782
0.399646
0.119559
4.26188
4.26755
0.140993
0.11268
1.2877
0.168111
0.126757
2.97302
3.21463
0.85109
0.118647
0.142171
0.685182
3.42868
0.204851
0.221355
3.28188
3.55751
0.00605386
0.145454
0.189398
0.190275
1.9033
0.936082
0.151242
1.41469
0.150991
0.163354
0.126191
0.878162
0.146122
3.37506
3.41891
4.21732
3.24052
2.18108
6.06382
0.154772
4.09253
0.935129
0.12006
1.14979
0.0192901
0.360469
0.14794
0.137452
0.109166
3.86233
0.106381
0.487078
1.54744
0.204061
0.46046
1.96702
3.28952
0.0860734
3.5283
2.78094
0.204198
0.134353
0.390449
1.24228
0.339923
1.25103
3.8226
0.167913
0.111632
0.166443
1.31457
4.24998
0.188731
0.237761
0.0969576
0.133246
0.166762
0.56095
0.113111
0.233201
0.292741
3.33185
0.127599
0.550246
2.93083
0.169104
0.422002
0.452157
4.21844
0.569931
2.51041
1.00904
0.165121
4.94673
3.41415
0.131446
0.944449
1.52142
0.135782
0.17729
0.173057
1.529
0.154774
1.30651
0.125299
1.55095
3.78643
1.04992
3.30173
1.13934
0.16008
1.1239
1.22797
0.220801
0.207708
0.303619
2.68196
0.173533
0.644419
0.148842
0.220538
0.879985
0.187731
0.114798
0.133927
3.64615
1.09741
0.118234
0.215481
0.110746
0.14746
0.159471
3.16669
0.203887
1.61165
4.10833
1.00446
0.00987249
1.25476
3.13004
1.11107
3.43483
0.256397
1.88831
4.0284
3.88476
0.0589599
3.32573
0.132499
3.23846
5.03655
0.111101
1.37391
1.46276
4.01897
1.39675
0.446911
0.153862
1.33495
3.71702
3.4904
4.05193
0.221581
1.1086
0.11848
3.45435
0.497868
0.111179
0.162033
1.08194
0.117306
0.2661
1.10868
0.14112
3.16324
0.108365
0.153037
2.22149
1.31069
0.240298
0.91509
1.52555
0.227847
0.964361
3.87246
0.133705
0.555594
0.167094
3.63446
1.73374
0.0997556
4.32124
0.126005
0.859049
3.82379
0.158265
0.141164
0.834367
1.02761
1.355
0.132814
3.99806
0.211861
0.955661
4.11336
0.555012
0.214619
2.17415
0.193819
0.156264
0.0178403
1.34373
3.81867
0.145761
4.24455
0.510946
0.162437
1.50827
0.178454
0.15446
1.5313
0.191183
0.137755
3.21919
0.111655
0.161538
0.199933
3.74123
3.50897
0.287142
0.122506
0.136189
1.55573
4.0272
0.138348
0.128712
0.42741
4.25319
0.13509
1.46923
1.54213
0.104678
0.908342
4.11778
0.13417
0.313274
0.131073
4.16438
0.124469
0.156704
0.248312
0.620915
3.66069
0.100361
4.084
0.125297
2.69961
0.149667
1.41977
0.591603
1.13619
3.29172
0.219199
0.926949
0.223501
0.20007
0.200905
3.38101
3.49824
0.131077
0.138443
2.25922
0.202551
0.168619
0.111717
4.20936
3.88643
1.07221
4.14124
0.214506
0.104058
1.58295
0.512708
3.26452
0.0940474
0.178676
0.108641
0.180313
0.142535
0.163468
0.146788
0.500032
4.43394
3.48948
0.115292
0.421541
0.997375
3.58708
0.153646
4.29657
3.40275
3.91803
0.180499
1.0803
0.128619
0.211487
0.162827
0.175816
0.105328
3.08785
4.37946
0.181905
0.452475
1.10652
0.588497
3.56178
3.9907
0.163209
0.122486
0.191462
0.405433
1.44218
0.124678
3.35971
1.0429
0.136693
0.245645
0.213831
0.714209
0.221689
0.142147
0.12781
0.12512
0.266603
0.98525
0.197232
4.17289
0.185156
0.168333
1.23456
0.227552
0.147604
3.97198
3.61043
0.166923
3.60779
0.110679
1.26262
0.186188
0.225392
0.133418
0.10597
3.45114
0.214377
0.205056
3.74076
3.07784
0.118513
0.120525
0.138014
0.210587
1.48394
0.00881308
0.158692
4.28209
0.147864
0.110471
0.191091
4.07706
0.157162
3.57023
3.37798
0.323689
3.8675
0.202842
0.0942347
4.38156
3.3425
0.107414
0.00289033
0.891766
0.241997
0.2326
0.126766
1.51879
2.83335
0.180105
0.124068
3.53642
0.138995
3.3493
2.02089
0.162873
0.961942
4.03617
0.108805
1.4306
0.130298
0.1881
0.215387
0.143376
3.82566
3.35725
0.158088
0.116344
3.8832
0.173719
0.222041
0.343225
1.22598
1.56962
0.102445
0.133889
0.114928
0.151566
0.099837
0.00289567
0.207801
0.210804
3.4581
0.920295
0.139442
2.15227
0.236442
1.15886
4.02496
1.15942
3.79616
1.77033
0.00738926
0.927864
0.216798
0.14832
3.21602
0.179681
4.68107
3.45649
1.04695
0.173359
3.59113
0.101429
3.77182
0.16138
0.188342
3.76423
0.524022
1.16477
0.171732
0.168316
0.122049
0.192251
1.50357
1.81314
0.137671
3.23518
0.633089
3.51167
0.143231
4.36786
0.166652
0.153926
0.63778
0.12073
0.86412
3.87807
0.988336
0.107355
3.59661
1.40813
3.59511
1.10753
0.778346
0.0691366
0.917851
3.85194
0.128716
0.151208
0.150608
4.04982
0.203786
0.172216
1.37572
0.962365
0.385958
4.27677
1.30392
0.368315
0.412676
1.36589
0.237875
0.958579
0.136022
0.132209
0.14189
3.6366
0.176079
1.39224
3.55807
0.0932864
1.07966
3.16049
0.133748
2.60599
0.13656
0.936658
0.216008
0.100134
0.189096
0.118837
0.0968995
0.223775
0.216227
0.185319
0.413574
3.48561
0.974926
0.161931
0.928096
0.127819
0.151674
0.152798
0.150433
0.185366
1.56193
0.139429
2.20252
3.66502
1.55008
1.20514
3.09912
0.200448
3.3566
0.144697
1.84257
0.169172
0.153504
0.302063
2.79277
0.25106
0.14348
0.126415
0.366186
0.245172
1.53229
0.80916
1.90305
3.34798
0.148037
0.125848
4.62897
0.149215
0.17234
0.107726
0.285296
0.125045
0.11377
0.185041
0.160444
1.23468
3.71333
2.15419
0.250317
0.123778
1.07731
3.91025
3.34122
0.104064
0.160818
1.12945
0.134562
0.100958
0.230518
3.66725
0.945701
0.127769
0.153504
0.187956
0.108542
3.55957
0.19599
0.161022
0.165658
0.179858
3.40654
0.123585
1.54871
1.49725
0.209535
0.17121
0.126074
3.72435
0.542971
0.147679
4.14808
1.03773
0.98716
0.110275
0.158624
1.36461
4.38051
4.25342
0.0914593
1.08678
0.12522
0.109731
3.44841
3.34916
0.0945666
0.00269844
1.18734
1.49069
0.126299
0.0965899
3.53263
0.139407
2.91523
0.325604
0.217344
4.60885
0.121336
0.136087
0.230141
3.2995
0.13132
0.104161
0.140055
0.158888
0.386766
0.220809
0.844772
0.945945
0.896031
0.15863
0.144857
0.12501
0.281412
0.16976
0.147258
0.953952
0.189541
0.195249
3.41233
3.92752
0.144834
0.114387
0.226095
3.55146
0.156142
1.12096
0.0932654
0.114482
0.0274292
0.170974
0.125212
4.02059
0.172757
0.113767
2.83567
0.131022
1.4181
0.156478
0.135699
4.04231
3.91983
0.0990326
3.47589
0.131355
1.20891
3.33921e-05
3.76207
0.133843
2.06726
0.150636
3.72575
0.752857
1.42233
2.9443
3.8477
0.164279
4.11096
0.112241
0.124876
0.0704565
3.73747
0.440401
0.108626
1.00025
2.47418
3.34386
0.224203
4.29207
0.165656
0.212669
0.131106
0.676458
0.334794
1.60878
0.149485
0.200237
0.120606
0.171985
0.21602
3.68207
0.136601
0.114316
3.9991
0.790407
0.0968992
0.293617
3.87037
0.15317
0.144262
3.96323
0.227814
3.86624
1.37006
0.143565
0.603807
1.07241
0.027776
0.209665
0.134087
0.101419
0.22262
0.250799
3.76986
0.1037
1.45
0.372943
0.170409
3.68126
1.94462
0.183316
0.15208
0.0929991
0.137245
0.0978069
1.8963
3.09651
0.136139
0.159217
0.16924
1.34361
0.22573
1.03615
0.1855
0.153635
0.167478
0.187812
2.05182
0.218086
0.977614
1.28845
0.000701774
1.46112
0.148214
1.10339
0.707247
0.149021
0.152336
0.247062
0.136788
0.199506
1.38357
3.91663
4.10186
3.40393
1.02244
0.0203367
0.0974086
1.44092
0.107636
1.4578
4.06793
0.121756
2.57695
1.09558
2.44377
0.234518
0.106518
0.152878
0.126689
3.64453
0.135652
3.65773
1.13988
0.903044
0.118565
3.06787
1.32196
0.163026
0.142249
3.74398
0.198125
0.157852
0.916871
1.07453
0.139015
0.120698
2.80887
0.137736
1.25547
0.163123
0.163425
0.216678
3.34829
0.0228881
0.0370542
0.134862
0.132881
0.369337
0.137502
3.89668
0.491639
0.0409235
0.170843
0.115355
1.03603
0.320275
0.0925797
1.55802
3.79745
0.188629
1.15039
0.146505
3.45341
0.939673
0.344334
0.319683
0.159466
0.126925
0.110255
1.0085
0.756851
0.112479
0.359199
1.54981
3.70433
2.15938
1.19535
0.317471
0.133191
2.9215
0.210037
0.139959
0.121859
0.223486
1.146
4.27585
0.207186
1.08728
0.144225
0.983371
3.16439
3.80326
4.02062
3.7394
4.31526
0.271415
0.389434
0.184781
0.900866
1.53916
0.128053
0.868661
0.104551
3.10384
0.142127
1.42737
4.03283
3.90205
0.170917
1.31386
0.555642
4.22032
3.81871
0.0941696
0.117194
0.149781
0.117251
0.143388
1.47872
0.23271
0.00883315
1.24389
0.110111
0.176432
0.829436
0.203929
0.159843
1.14552
4.40842
0.571193