/*--------------------------------*- C++ -*----------------------------------*\
  =========                 |
  \\      /  F ield         | OpenFOAM: The Open Source CFD Toolbox
   \\    /   O peration     | Website:  https://openfoam.org
    \\  /    A nd           | Version:  10
     \\/     M anipulation  |
\*---------------------------------------------------------------------------*/
FoamFile
{
    format      ascii;
    class       volScalarField;
    location    "1800";
    object      nut;
}
// * * * * * * * * * * * * * * * * * * * * * * * * * * * * * * * * * * * * * //

dimensions      [0 2 -1 0 0 0 0];

internalField   nonuniform List<scalar> 
10435
(
0.524671
0.507888
0.598086
0.527058
0.542472
0.611475
0.59167
0.626394
0.730435
0.623607
0.519963
0.546888
0.632575
0.639103
0.599689
0.58578
0.682958
0.648522
0.793752
0.528505
0.601932
0.547924
0.580525
0.683646
0.603245
1.07329
1.06484
0.613922
0.990887
0.636056
0.564355
0.525452
0.651396
0.969354
0.622694
0.458225
0.590469
1.06306
1.02677
0.758612
0.641067
0.590993
0.648748
0.517758
0.571603
0.719206
0.627369
0.786823
0.755252
0.572239
0.616648
0.568541
0.993727
1.04107
1.04042
0.966574
0.606074
1.03407
0.795494
0.655899
1.00793
0.495338
1.01024
0.557088
0.57358
0.602441
0.850857
0.906538
0.609455
0.663185
1.04934
1.08979
0.532721
0.590875
0.567335
0.502172
0.635503
0.591513
0.677996
0.598658
0.588449
0.551308
0.958671
1.03204
0.598086
0.441607
0.46998
0.506188
0.461631
0.478938
0.511171
0.515744
0.550054
0.459562
0.488706
0.434562
0.521303
0.519251
0.743062
0.523449
0.488558
0.563022
0.462877
0.497629
0.5738
0.522599
0.552249
0.578932
0.61225
0.57908
0.567094
0.554379
0.556299
0.565581
0.520922
0.544288
0.526728
0.457078
0.507419
0.532002
0.530458
0.411798
0.472661
0.37291
0.536966
1.03414
0.527092
0.360319
0.531904
1.1618
0.349947
0.534098
0.599434
0.625883
1.09221
0.821739
0.437935
0.533941
0.49779
0.538545
0.533376
0.564166
0.898103
0.543232
0.554624
0.472547
0.404417
0.575633
0.645427
0.545586
0.844985
0.572562
0.498824
0.546708
0.592617
0.94426
0.540685
0.486503
0.608834
0.526181
0.554135
0.659118
0.517681
0.570579
0.546216
0.53311
0.661812
0.545827
0.582339
0.541582
0.593517
0.617581
0.983098
0.458373
0.557455
0.520777
0.478887
0.755701
0.560522
0.989612
0.516042
0.596785
0.542659
1.00221
0.560909
0.674863
0.529068
0.592286
0.549866
0.553145
0.535506
0.924297
1.14583
0.467641
0.546214
0.598523
0.586863
0.429372
0.75928
0.585985
0.50124
0.994967
0.622861
1.00086
0.610867
0.525796
0.511716
0.540307
0.984463
0.561876
0.810523
0.585726
0.53667
0.565723
1.02734
0.592746
0.534427
0.886849
1.08269
0.698078
0.996879
0.756196
0.910933
0.408492
1.02702
0.606638
1.0487
0.424681
0.56142
0.423671
0.823237
0.632849
1.06262
0.575328
1.15639
0.727927
0.619278
1.07057
0.612466
0.577551
0.511224
1.00627
0.832653
0.995607
0.521761
0.695074
0.410987
0.606279
0.827351
0.508661
0.917299
0.49654
0.634356
0.56762
0.59915
0.545505
0.786167
0.595364
0.878768
0.918524
0.593416
0.579308
1.0441
0.60238
0.526588
0.80579
0.50474
0.572661
0.9414
0.528147
0.593419
0.631556
0.60746
0.608385
1.11082
0.536163
1.11628
0.536396
0.590652
0.649441
0.625878
0.669397
0.596928
0.44399
0.49388
0.86377
0.559213
1.03153
1.02157
0.98105
0.394756
0.531062
0.967664
0.61834
1.03957
1.04145
0.517008
0.52368
0.532658
0.582365
0.841953
0.603626
0.601484
0.878632
0.529289
0.550773
0.697307
0.577075
0.591474
1.01019
0.555508
1.01665
0.491165
0.568056
0.688054
1.00713
0.969435
0.551098
0.880571
0.548587
0.58534
1.00139
0.495118
0.889761
0.671702
0.621019
1.14979
0.607368
0.861658
1.09156
0.696557
0.943552
0.999233
0.596799
0.555965
0.989137
0.971073
0.875052
0.965256
0.951597
1.16493
1.02493
0.976586
0.990108
0.959046
0.932725
0.954778
1.18195
0.855292
0.699306
0.984927
0.613071
1.05247
0.614534
0.696784
0.774217
0.631845
0.581704
1.02181
0.999373
0.912292
1.05649
0.93738
0.902132
1.00104
1.16523
0.945945
0.559885
1.13668
0.722695
1.04836
1.17326
0.63364
0.802585
0.822243
1.08504
1.04283
1.12095
1.01109
1.09761
1.28655
1.03279
0.659486
0.929812
0.619004
0.721182
0.622275
0.629017
0.745639
0.606994
0.652986
0.392032
0.713253
1.00401
1.01871
0.601373
1.01932
0.634588
1.2526
0.993278
1.17061
0.953846
0.926568
0.587835
1.08713
0.636796
0.579316
0.767221
1.1244
1.19499
0.796463
1.22849
1.13596
0.972423
0.948673
0.878088
0.983266
0.604204
1.0403
1.10001
0.984347
0.926092
0.637419
0.721782
0.787304
0.827818
0.989612
5.24736
5.26745
5.26452
5.25373
5.2485
5.26421
5.3242
5.46344
5.73808
4.67445
4.6911
4.69619
4.69536
4.69851
4.7186
4.77409
4.89079
5.1026
4.12194
4.13531
4.14342
4.14764
4.15486
4.17548
4.22392
4.31942
4.48546
3.597
3.6076
3.61617
3.62235
3.63086
3.64977
3.69024
3.76669
3.89603
3.10897
3.11731
3.12511
3.1315
3.13971
3.15585
3.18835
3.24797
3.34745
2.66697
2.67348
2.68003
2.68581
2.69307
2.70622
2.73143
2.77632
2.84981
2.27819
2.2834
2.28862
2.29348
2.29956
2.31007
2.3293
2.36221
2.41412
1.94716
1.95113
1.9549
1.95872
1.96377
1.9723
1.98718
2.01147
2.04792
1.67477
1.67687
1.67897
1.68174
1.68598
1.6932
1.70524
1.72397
1.75093
1.45719
1.45678
1.4572
1.45906
1.46276
1.46919
1.47943
1.49459
1.51562
1.28654
1.28408
1.28339
1.28473
1.28817
1.29413
1.30314
1.31576
1.33237
1.15354
1.15115
1.15045
1.15178
1.15515
1.16075
1.16879
1.17945
1.19279
1.05211
1.05156
1.05171
1.0533
1.05659
1.06172
1.06878
1.07774
1.08843
0.979301
0.980424
0.981344
0.983
0.98588
0.990221
0.996082
1.00335
1.01172
0.931971
0.933292
0.934119
0.935216
0.937165
0.940261
0.944564
0.949922
0.956023
0.905572
0.905466
0.905154
0.904959
0.905394
0.906756
0.909098
0.912211
0.915655
0.894165
0.892137
0.890007
0.887931
0.886345
0.88554
0.885573
0.886205
0.886871
0.892758
0.889129
0.884947
0.880616
0.876611
0.873272
0.8707
0.868705
0.866783
0.898301
0.893423
0.887143
0.880303
0.873553
0.867339
0.86185
0.856985
0.852344
0.909051
0.903054
0.894585
0.884994
0.875184
0.865756
0.857016
0.848963
0.841237
0.924076
0.916816
0.905894
0.893236
0.880027
0.867031
0.854693
0.843177
0.832352
0.94306
0.934019
0.920114
0.903951
0.886959
0.870025
0.8537
0.838306
0.823955
0.966409
0.954305
0.936499
0.916269
0.895099
0.873883
0.853185
0.833418
0.814931
0.995537
0.977325
0.954226
0.929355
0.903696
0.877984
0.852639
0.828019
0.804675
1.03343
1.00194
0.97212
0.942396
0.912158
0.882015
0.852031
0.82213
0.792872
3.48059
3.56491
3.65338
3.74547
3.84089
3.93912
4.03973
4.14211
4.24587
4.35037
4.45518
4.55988
4.66391
4.76698
4.86851
4.96812
5.06536
5.15972
5.25072
5.33791
5.42065
5.49837
5.57048
5.63627
5.69503
5.74615
5.7896
5.82542
5.85345
5.87337
5.88596
5.89184
5.89151
5.88588
5.87597
5.86296
5.84815
5.83288
5.81858
5.80673
5.79873
5.79599
5.79948
5.80991
5.82753
5.85193
5.8819
5.91571
5.95042
5.98275
6.00873
6.02419
6.02546
6.00907
5.97288
5.91563
5.83756
5.73979
5.62563
3.45382
3.53914
3.62811
3.72044
3.81579
3.91377
4.01396
4.11591
4.21916
4.32324
4.42769
4.53208
4.63595
4.73887
4.84039
4.94006
5.03743
5.132
5.22327
5.3107
5.39374
5.47182
5.54434
5.61073
5.67037
5.72268
5.7672
5.80371
5.83221
5.85298
5.86651
5.87332
5.87402
5.86937
5.86034
5.84802
5.83367
5.81866
5.80444
5.7925
5.78429
5.78114
5.78414
5.79404
5.81111
5.83499
5.86457
5.89798
5.93251
5.96479
5.99096
6.00699
6.00899
5.99357
5.95828
5.90178
5.82404
5.72613
5.61086
3.41089
3.49378
3.58042
3.67057
3.76389
3.86002
3.95855
4.05903
4.16103
4.2641
4.36779
4.47164
4.57522
4.67808
4.77975
4.87978
4.97768
5.07295
5.16505
5.25344
5.33753
5.41672
5.4904
5.55795
5.61877
5.67231
5.71818
5.75613
5.78613
5.80838
5.82324
5.83123
5.83298
5.82926
5.82098
5.80925
5.79529
5.78045
5.76619
5.75401
5.74536
5.74162
5.74394
5.75312
5.76951
5.79283
5.82209
5.8555
5.89046
5.92367
5.95133
5.9694
5.97397
5.96165
5.92988
5.87722
5.80347
5.70957
5.59821
3.34407
3.42415
3.50809
3.59564
3.68654
3.78043
3.87695
3.97568
4.07621
4.1781
4.28093
4.38423
4.48757
4.59048
4.6925
4.79313
4.89187
4.98819
5.08151
5.17126
5.25682
5.33756
5.41285
5.48205
5.54456
5.59986
5.64754
5.68735
5.71923
5.7433
5.75988
5.76945
5.7726
5.7701
5.76286
5.75196
5.73861
5.72417
5.7101
5.6979
5.68908
5.68504
5.68699
5.69581
5.71194
5.73519
5.76468
5.79872
5.83482
5.86975
5.89975
5.92077
5.92886
5.9205
5.893
5.84474
5.77536
5.68564
5.57816
3.25782
3.33472
3.41561
3.50031
3.58856
3.68008
3.7745
3.87146
3.97056
4.07139
4.17351
4.27648
4.37984
4.48312
4.58582
4.68744
4.78743
4.88522
4.98021
5.07178
5.15928
5.24206
5.31944
5.3908
5.45552
5.51308
5.5631
5.60529
5.63957
5.66601
5.68487
5.69655
5.70166
5.70092
5.69523
5.68567
5.67345
5.65993
5.64657
5.63493
5.62655
5.62288
5.62521
5.6345
5.65128
5.67548
5.70631
5.74216
5.78063
5.8185
5.85201
5.87704
5.88953
5.88581
5.86304
5.81941
5.75442
5.66871
5.56478
3.15506
3.22839
3.30596
3.38761
3.47312
3.56223
3.65463
3.74995
3.84782
3.94785
4.04958
4.15257
4.25636
4.36044
4.4643
4.56739
4.66913
4.76891
4.8661
4.96004
5.05005
5.13543
5.21552
5.28964
5.35718
5.41763
5.47059
5.51577
5.55306
5.58247
5.60424
5.61873
5.62651
5.6283
5.62497
5.61758
5.60736
5.59566
5.584
5.57395
5.5671
5.565
5.569
5.58019
5.59919
5.62603
5.66002
5.69961
5.74241
5.78518
5.82405
5.85474
5.873
5.87496
5.85754
5.81877
5.75801
5.67582
5.57469
3.0401
3.10956
3.1836
3.26208
3.34483
3.43162
3.52216
3.61609
3.71307
3.81267
3.91447
4.01798
4.12272
4.22816
4.33375
4.43891
4.54302
4.64544
4.74547
4.84244
4.93562
5.0243
5.10779
5.18541
5.25651
5.32061
5.37728
5.42624
5.46733
5.50057
5.52614
5.5444
5.55589
5.56132
5.56155
5.55765
5.55082
5.54245
5.5341
5.52739
5.52397
5.52547
5.53339
5.54892
5.57282
5.60523
5.64552
5.69215
5.74264
5.79362
5.84098
5.88013
5.90647
5.91577
5.90465
5.87095
5.81392
5.73411
5.63414
2.91767
2.98296
3.05327
3.12853
3.20859
3.29325
3.3822
3.47513
3.57166
3.67137
3.7738
3.87845
3.98479
4.09224
4.20023
4.30815
4.41535
4.52112
4.62475
4.7255
4.82263
4.91541
5.00316
5.08517
5.16075
5.22943
5.2908
5.34457
5.39058
5.42882
5.4595
5.48293
5.49966
5.51041
5.51601
5.51761
5.51643
5.51378
5.51136
5.51083
5.51396
5.52252
5.53814
5.56223
5.59574
5.63887
5.69101
5.75046
5.81456
5.87963
5.94112
5.99387
6.03254
6.05226
6.04911
6.02062
5.96599
5.88599
5.78366
2.79559
2.85641
2.92288
2.99498
3.07254
3.15534
3.24305
3.33529
3.43182
3.53231
3.63604
3.7425
3.85111
3.96122
4.0723
4.18362
4.29459
4.40451
4.51246
4.61775
4.71969
4.81747
4.91051
4.99803
5.07919
5.15364
5.22096
5.28095
5.3334
5.37842
5.41627
5.44719
5.47156
5.49018
5.5039
5.51433
5.52265
5.52955
5.53726
5.54761
5.56261
5.58419
5.61407
5.65429
5.70615
5.76969
5.84418
5.92688
6.01476
6.10447
6.19129
6.26873
6.32947
6.36703
6.37621
6.35333
6.2974
6.21008
6.09574
1.13124
1.09802
1.07412
1.05368
1.03463
1.0166
1.0001
0.986252
0.976621
0.973292
0.978844
0.9959
1.0269
1.07403
1.13961
1.22678
1.33841
1.47647
1.64192
1.8351
2.05613
2.30529
2.58334
2.89206
3.23507
1.07427
1.07271
1.0616
1.04672
1.0302
1.0133
0.997241
0.983465
0.973732
0.970178
0.975243
0.991494
1.02153
1.06799
1.13357
1.22109
1.33304
1.4712
1.63659
1.8296
2.05034
2.29912
2.57687
2.88569
3.22964
1.05293
1.05457
1.04809
1.03656
1.02208
1.00627
0.990677
0.976976
0.96706
0.963089
0.967466
0.982788
1.01182
1.05742
1.12249
1.20972
1.32136
1.45899
1.62346
1.81503
2.0337
2.2796
2.55348
2.85708
3.19353
1.03933
1.04043
1.03529
1.02533
1.01208
0.997025
0.98176
0.968032
0.957795
0.953231
0.956754
0.971014
0.998878
1.04334
1.10736
1.19357
1.30405
1.44015
1.60247
1.79107
2.00573
2.24639
2.51357
2.80869
3.13444
1.0273
1.02785
1.02317
1.01401
1.00144
0.986796
0.971617
0.957657
0.946891
0.94152
0.94399
0.957002
0.983486
1.0265
1.08899
1.17355
1.28208
1.41569
1.57473
1.75897
1.96796
2.20145
2.45974
2.74412
3.05704
1.01532
1.01574
1.0115
1.00291
0.99079
0.976322
0.961002
0.946589
0.935073
0.928681
0.929897
0.941467
0.966362
1.00765
1.06826
1.15066
1.25659
1.38694
1.54175
1.7205
1.92249
2.14722
2.39483
2.66647
2.96443
1.00278
1.00373
1.00033
0.992456
0.980717
0.966257
0.950587
0.935504
0.923028
0.915414
0.915193
0.925151
0.948281
0.98764
1.0461
1.12602
1.22896
1.35554
1.50551
1.67803
1.87206
2.08684
2.3223
2.57947
2.86064
0.988629
0.991835
0.990124
0.983237
0.971856
0.95724
0.941013
0.925068
0.911466
0.90247
0.900667
0.908891
0.930139
0.967456
1.02366
1.10098
1.20078
1.32344
1.46839
1.63442
1.82013
2.02435
2.24668
2.48805
2.75061
0.973637
0.981067
0.981914
0.976144
0.964957
0.949946
0.932937
0.916006
0.901208
0.89074
0.887292
0.893731
0.913042
0.948312
1.00233
1.07716
1.17402
1.29305
1.43334
1.59331
1.77115
1.96517
2.17436
2.39988
2.64247
0.6331
0.632751
0.39525
0.613253
1.05111
0.91959
3.81745
1.38173
0.384965
4.50874
0.276328
0.535927
0.977698
0.574551
3.62284
3.46529
0.32161
0.619254
6.60077
1.71421
2.7661
4.65715
0.314508
0.371865
0.590486
1.58301
0.650421
0.689373
0.5436
0.312077
4.21459
1.85442
0.558112
1.28207
0.307753
1.8971
1.36055
3.60984
1.34338
0.83396
0.417242
0.164389
3.3521
0.729974
0.589445
5.5611
0.29942
0.333872
0.482206
0.618905
0.291754
0.402774
2.20337
0.6219
3.69084
0.392978
0.583176
2.60736
0.596801
0.370299
1.92089
0.404907
0.999225
4.23595
1.4854
0.831507
1.15994
0.336622
0.944652
0.560908
0.406816
5.09851
1.06097
1.8739
0.48403
2.78602
2.32271
0.3567
0.548647
0.6233
1.34005
2.00134
1.88679
0.257172
1.35847
1.73643
1.33647
0.363206
0.551344
0.783812
0.482266
0.956169
6.04707
0.539418
1.00298
0.279391
1.52227
0.276337
0.338158
0.372582
0.760912
0.42536
0.767263
5.34432
0.60417
0.90261
0.325975
1.44569
0.175767
0.315211
4.40279
0.299642
0.349478
5.36988
2.3376
0.487982
0.472744
0.901032
1.43724
0.249766
0.105441
0.306847
0.357456
0.570769
0.544495
3.1245
0.406088
2.00365
0.637927
0.335013
1.71802
1.92191
0.546838
1.46869
0.820565
1.25634
0.547552
0.735346
2.36452
1.62138
5.55076
1.19009
0.368145
0.125158
0.521634
3.66734
0.603167
2.5846
3.401
0.304817
1.41459
1.07207
0.604586
4.33533
0.384483
0.257768
0.774202
0.90776
2.72873
1.76862
3.45082
0.397032
3.60409
0.281667
4.77502
0.269514
0.58343
0.607846
4.08534
0.757884
0.575498
4.43357
0.332854
0.262471
1.18816
0.881685
2.53762
0.55086
0.424798
5.49328
2.0565
1.75952
2.00765
2.52294
0.93986
0.67171
0.274224
0.171824
0.610602
3.08458
0.34778
0.371121
0.548878
1.10068
4.09203
0.599592
0.475992
4.54796
0.506284
0.585485
0.87858
4.76912
1.9731
3.05197
1.9729
2.81245
1.08398
0.74894
0.488884
1.01467
0.598922
0.456429
1.85899
1.95146
1.10098
0.398545
0.803092
1.01967
5.35398
0.801109
0.630907
0.191693
0.355437
0.423316
0.485983
0.452138
0.651458
0.325789
0.172505
1.06382
0.253286
2.00215
1.57868
0.899362
1.32459
3.83773
3.06444
0.649735
2.50397
4.50689
2.73668
1.81333
4.40039
0.84981
1.12511
1.70309
2.07826
0.720227
3.46895
3.37107
0.162889
0.906349
1.67162
0.496753
0.844161
0.611691
0.336514
2.42026
2.8203
6.41336
0.288445
0.672074
2.80102
0.396626
2.00279
0.541687
3.3867
0.58719
3.84721
0.653309
2.6611
0.547593
0.3962
0.899563
6.88263
0.58449
0.987884
0.362086
0.595354
0.369339
0.848828
1.30209
0.309027
5.55867
0.420791
2.52817
0.907086
0.577611
0.312328
0.344699
4.45397
3.75752
0.120531
0.313035
0.962095
0.407051
0.415513
1.03974
1.68755
0.399175
0.374295
3.59454
0.50448
3.08835
0.431319
4.15153
2.77229
1.48934
1.61619
2.18997
5.17523
5.90059
0.584472
0.612886
0.349711
0.966886
0.31382
1.61077
0.637063
0.945892
2.73803
2.8973
0.443975
4.25275
1.37937
0.58104
0.475106
1.51072
1.07401
2.57063
4.76419
4.01117
0.611141
4.35587
0.377125
1.76084
2.40101
2.02652
0.107032
0.29876
0.437903
0.565523
0.385243
5.93261
2.05989
0.775803
0.768236
0.8607
1.11799
0.282715
0.552185
5.90321
0.180416
2.87098
0.317473
0.459945
0.744158
0.69775
4.22013
0.286695
0.496989
0.299521
2.59191
0.456271
0.170137
1.17109
4.0778
0.32805
2.75847
0.620829
5.70292
4.27705
0.559549
0.446222
0.987321
0.437711
0.279065
5.59381
1.38636
3.7806
0.423334
4.1623
0.547141
0.725278
0.702908
0.865008
4.96751
1.73713
0.278692
0.346952
3.28172
2.93317
0.780369
0.550681
2.20642
5.53005
4.05404
0.56359
0.899816
0.543677
1.42503
3.52442
1.28331
0.63835
0.570645
0.105681
3.63197
0.761793
0.598305
2.69442
0.558962
2.71245
0.39716
2.30015
2.53084
0.294964
0.464198
0.283453
0.970171
0.950639
4.97531
1.44841
0.736716
0.757605
4.23328
0.360984
0.0886842
0.496167
1.78524
1.99106
2.99311
0.635036
0.805612
0.54782
4.32625
4.00476
4.45377
0.0866772
0.937291
0.172821
2.00811
4.49541
0.324243
0.634726
0.938895
0.473027
0.670466
0.520662
0.590274
0.544635
0.449123
3.26208
3.51621
0.405462
5.90969
0.569033
0.280897
1.9652
0.441257
2.20304
3.85746
0.961058
0.558825
1.80991
0.368224
1.24259
0.681694
0.417078
2.12312
0.283774
0.75439
1.09846
0.300298
0.183278
0.611477
1.13732
0.855435
0.831069
2.65008
2.65256
1.26698
1.70317
0.132496
0.549296
0.256149
1.1993
2.29068
5.10203
0.598179
5.35304
3.99906
3.60884
0.295478
0.55675
2.68048
0.651998
3.90526
2.67287
5.22986
0.616257
3.44108
4.3588
2.57171
0.804267
2.45772
1.42957
2.98831
3.11012
3.72796
1.89585
4.57554
1.50685
1.18392
0.861577
0.579024
0.327231
0.448428
0.454894
0.393941
2.7897
6.42223
0.345782
1.69945
0.556011
1.19468
5.35927
0.363035
0.451492
2.5584
4.65774
0.869078
5.43299
0.560384
0.46659
0.238882
0.608975
3.58275
0.42274
0.501935
3.71338
0.966569
0.314445
4.5514
0.33736
0.204497
0.428046
3.0186
0.604644
2.74098
0.357243
1.52027
1.89636
0.639042
0.49854
0.461175
0.321444
0.368798
6.0401
1.08811
0.477497
1.64782
1.60724
3.63666
1.0523
0.307618
5.29138
2.67882
0.591852
1.95614
0.313356
0.569413
5.34405
2.95056
0.675322
0.898053
0.35206
0.29188
0.478414
0.637729
0.319726
1.7037
1.97736
4.70516
6.37434
1.3806
0.564127
4.49398
0.88525
0.695439
4.7455
0.901925
1.37111
4.18643
4.05833
5.90159
0.595804
1.18739
0.450847
1.12805
1.88012
0.385706
0.671448
0.195913
0.473626
2.03939
0.895464
2.45816
1.93278
0.557291
3.02881
3.56924
1.5202
1.72328
4.05008
0.863391
2.43053
0.707492
0.789056
0.438558
4.53499
1.18368
2.87813
6.03121
1.20426
0.583034
0.374709
0.299672
0.687382
0.575562
0.569549
0.609437
0.993956
0.382965
3.71413
0.253302
2.50059
0.63755
0.328161
0.987527
3.71707
2.5722
0.563915
0.815887
4.39707
0.955706
1.44085
0.392404
0.614175
0.376747
4.10281
2.92637
0.274748
4.81615
0.163009
5.37764
2.15085
0.293526
6.54171
2.63264
2.63909
0.465765
0.618129
0.270338
0.105532
1.06615
1.21761
0.451316
0.516209
0.839839
2.14881
0.5806
6.82665
1.24246
0.374701
0.159182
2.37574
1.69456
1.87275
5.67621
3.00118
0.385398
2.33775
0.397683
1.88047
3.16584
0.569348
5.45539
0.524818
0.351418
1.9728
3.56908
0.869221
0.284192
1.44532
6.00138
3.39729
1.30666
0.657405
2.53935
4.7532
0.598967
0.307884
0.973999
5.16031
5.35368
0.356422
3.72918
1.04888
0.341444
3.8806
0.606076
0.305987
6.877
0.815082
1.17763
0.124062
3.47168
0.83068
3.44898
1.95405
1.05067
6.5494
2.17104
0.46591
3.38331
1.47139
1.60035
0.913091
1.61733
0.435354
6.61572
0.426311
3.79834
0.549238
2.63046
0.43868
0.309223
0.56447
0.811273
3.30588
0.118304
0.28272
3.35355
0.883195
0.630625
6.11017
2.57489
0.626944
0.689416
1.56357
2.51508
0.293342
0.445644
2.27912
3.98738
4.12749
1.72045
0.441204
0.0519979
3.20541
0.566564
0.158058
0.640073
0.597114
0.307743
4.18199
0.613734
4.19994
0.238139
0.138992
0.882812
0.914627
0.744704
1.65458
3.3253
0.389964
3.26365
0.753379
3.57158
3.34874
0.38663
0.813227
0.378529
3.72116
4.65419
0.547565
4.36182
1.69587
1.30988
6.25158
5.70072
2.66501
1.03356
0.178081
5.38993
0.286484
0.451965
2.86255
2.3235
2.70318
0.955911
3.59418
0.458892
1.7105
0.595418
5.85386
0.313351
0.286333
1.33102
0.5374
0.603364
0.394544
1.48948
1.66091
0.608212
0.950709
0.425596
0.549087
5.4202
1.48022
0.366874
0.582036
0.626687
4.54395
1.69921
0.339448
2.69291
1.50994
3.50796
1.09662
0.650044
2.88219
0.228054
0.284814
0.647178
6.72466
2.99544
0.502553
6.54386
2.49136
0.261568
2.6627
1.41235
0.303267
0.92267
5.04664
6.04534
4.99834
0.941769
2.55803
0.369667
1.3097
2.28874
3.27808
3.16108
1.65738
0.420766
0.255746
0.943538
3.76711
0.0569157
0.530622
0.630208
0.252339
1.1274
1.99926
3.746
0.0639189
3.08316
3.23415
0.554003
0.535605
2.57671
0.372488
0.358813
0.29503
6.40332
0.587712
2.68676
5.76172
3.64177
2.04938
0.620516
2.10434
2.56528
0.798286
2.58602
0.450241
0.163832
0.295376
0.59655
0.606014
3.07308
3.72955
0.578224
0.810289
6.25636
0.442133
0.340094
0.3069
1.00794
2.37505
0.634868
1.19493
0.714724
2.83358
0.433859
1.17886
0.470602
1.13646
0.545048
3.81635
2.5054
0.62647
0.114814
0.676661
6.22851
0.401562
0.628876
0.439757
0.500553
5.07389
0.682613
2.70915
0.715068
0.632883
2.68722
2.67168
2.90713
2.72824
0.286776
2.76439
0.286959
0.196662
0.407239
5.6524
3.15755
6.51881
1.76693
1.22677
0.466088
0.474676
0.673567
2.65516
1.74296
0.681479
4.37709
1.95678
0.814773
1.37152
0.485162
0.270645
0.340021
4.4209
3.33038
4.51404
1.87291
0.485342
0.945736
0.741403
3.2104
3.69182
0.663486
0.626808
1.62713
5.16445
0.642315
0.885287
2.5733
1.11396
0.356095
0.413897
1.70564
0.476966
3.67192
0.327207
2.27135
0.309307
0.523954
0.903022
0.665037
0.368858
3.63786
0.274679
1.09328
0.644384
0.489799
3.55371
0.37884
0.481167
3.85863
4.05223
0.485185
0.342246
2.9041
1.79412
0.364866
3.57196
0.399555
2.31113
0.265269
0.317374
0.266354
0.288455
2.77932
0.510707
1.3308
1.26774
0.951922
2.64259
3.75677
0.226912
6.27959
2.03989
1.80793
6.09045
0.318011
0.409662
3.83271
0.337805
4.09584
3.35743
4.03044
0.879023
0.29397
0.279335
5.94024
1.28325
0.404282
4.44267
0.662734
0.466297
0.428843
0.720414
1.50646
0.660288
3.17631
0.404146
4.53141
6.4014
0.866799
4.36333
1.10192
0.470767
0.349872
0.624301
2.59613
1.64155
4.43745
0.498367
0.84251
2.27019
3.42097
0.571736
0.295667
0.289603
2.36933
2.54629
0.872581
0.450136
5.05236
0.431857
0.614121
0.300562
0.569612
0.548657
0.760178
0.759007
5.06074
4.49708
0.26096
0.595219
6.78899
0.592758
1.40273
1.59867
1.12898
3.16498
2.18036
0.254881
1.74764
2.50399
1.26324
4.22438
0.512119
0.264943
2.41518
0.865199
5.23332
0.499821
0.622852
0.875931
0.371952
1.48085
6.31571
1.3782
2.38068
1.85421
4.36402
2.44784
1.2341
0.182906
0.591018
2.40266
0.467299
2.8448
6.51858
0.842576
2.35397
0.459729
0.438549
4.22263
6.03157
2.63547
1.26168
0.631054
0.552481
0.569931
0.20836
4.82313
0.34333
0.788592
0.639167
0.586266
0.150426
0.645299
0.412972
0.12967
1.72474
0.577273
5.64139
0.352915
1.70467
3.02712
3.46238
2.49123
5.80633
1.68444
2.42383
1.18275
0.32073
0.563569
0.472177
0.646882
0.857916
0.607265
1.95289
0.437875
2.1607
1.61821
0.262724
0.215603
0.840902
3.31147
2.37871
0.264082
0.530398
0.528337
0.837273
4.36433
0.653956
0.384419
0.358036
0.288404
0.260681
0.326994
0.279938
0.730815
0.956851
0.476045
0.281226
0.568521
3.02957
0.453486
5.77012
0.298055
1.23714
3.11246
0.444419
3.58994
0.789938
0.634446
2.40466
1.49189
0.768258
5.59522
0.716779
0.604448
0.507808
5.50874
0.309164
0.341429
3.26771
0.594689
0.367021
0.539521
0.31332
0.408406
1.33038
3.65838
0.519033
0.426488
1.58366
2.47582
3.56379
4.1375
2.12023
5.73542
2.90419
1.89266
1.07453
6.32751
4.35934
0.631121
1.99375
0.51879
0.246562
1.86044
2.1104
2.91497
0.881266
4.98025
0.159941
0.292257
5.73026
0.283034
0.440666
5.30961
2.86282
0.300191
0.881466
2.25985
0.434388
2.0378
3.00019
5.49794
3.57314
2.91182
2.91329
0.56604
5.54276
0.596261
0.607746
2.26871
0.108112
2.78266
0.56609
1.66497
0.585808
0.607363
1.12835
0.434916
0.379837
0.278812
0.442688
4.35572
0.3804
0.589719
6.76237
1.00907
3.65551
0.352807
1.60392
0.827576
3.53204
3.87694
0.546334
0.494263
0.42967
4.96798
1.67508
6.46027
0.447711
1.87096
0.614949
3.07427
1.88604
0.278714
1.29728
1.57244
2.84027
0.487721
0.330709
4.47283
0.694436
3.85955
0.80631
1.88858
4.03335
4.94437
2.39308
0.529775
6.18326
0.902878
0.564233
0.628214
0.960063
0.710602
0.428918
6.33381
2.66671
0.52307
5.84982
0.999363
2.7697
2.49935
3.52622
0.728068
0.351166
0.587489
2.30889
0.38075
1.4005
4.97925
0.893625
4.4782
2.75466
0.110097
3.11296
0.551297
2.17935
0.552273
0.327383
3.03139
0.883308
4.27103
0.488652
0.958222
5.62316
3.23257
0.464379
0.329698
4.72887
5.5998
0.637916
0.487398
0.710352
4.58993
0.981314
1.00977
0.361102
2.32294
0.715885
0.865958
0.520788
0.761108
0.666086
0.925148
1.36175
2.31721
0.434285
2.31089
0.784017
3.40145
0.554412
1.57949
2.30346
0.858705
0.771868
0.519349
0.253506
0.513806
0.362082
0.276454
4.7444
2.9328
1.1257
1.74603
0.508532
0.743408
0.631034
4.58015
4.83323
4.03469
0.444726
0.416506
6.23372
4.60163
0.39063
5.05564
0.508468
0.395397
0.404256
0.3811
2.13286
0.489186
5.22098
1.35911
1.09203
0.317195
0.519104
0.443158
1.92235
0.620391
0.997166
2.31533
1.11271
1.99038
0.859779
0.482627
0.454677
6.62598
0.481455
2.60765
0.414474
3.12236
0.468697
0.633075
0.373092
5.27764
2.09299
1.67995
5.45042
5.56754
1.81677
6.25452
0.55837
0.510298
5.67034
0.795616
1.57113
0.297421
0.537866
0.330011
1.1153
0.592486
0.976747
0.830402
1.47091
0.506548
0.493878
0.80698
5.80532
0.683305
4.69587
0.870635
4.74939
0.991318
5.8237
1.39869
0.71386
2.1703
5.60282
0.469834
3.47962
3.7998
0.274397
0.657812
2.39766
0.475622
0.538086
3.45949
0.493754
5.58936
2.87458
5.18086
5.04273
2.3557
1.3929
0.433787
0.816639
4.56464
0.522083
0.550496
2.41175
4.56584
2.34199
5.0677
4.23328
0.178709
3.38923
0.521511
2.10545
6.11862
5.07709
0.594699
2.52722
0.470813
0.562156
0.133323
0.474938
4.92967
0.461483
0.457074
0.499692
6.84318
0.0250163
2.10473
0.747221
5.00468
0.428817
3.36887
0.32169
0.761202
0.946733
0.40881
6.09639
0.54609
0.97393
4.43684
2.92141
0.363784
4.22748
1.31594
5.701
3.76865
5.28158
2.58039
0.526757
0.429187
4.46365
4.7859
0.442436
4.2757
4.65314
0.345553
0.676088
0.885318
1.27374
1.0709
5.33468
2.76446
1.09425
0.045922
0.634514
5.48886
0.362159
1.93959
1.42073
0.866679
0.848811
2.77956
0.355118
1.93102
0.388992
0.316775
0.115346
2.08694
5.38476
4.42547
0.482489
3.59078
0.484171
0.489323
1.26073
5.35493
0.300271
0.963001
0.412984
0.816204
0.761782
0.514359
0.861606
2.85452
3.91592
0.965489
0.580406
5.30206
4.0765
0.587867
5.61068
0.647576
0.938773
0.513811
0.547604
0.462587
4.35776
1.56354
0.292785
6.36222
2.54788
0.378419
2.67474
1.05462
0.644733
3.48578
0.496662
1.63447
1.53606
0.306799
2.63672
0.390642
1.78365
0.6203
0.853048
0.502599
0.562182
0.34165
3.34564
2.56954
0.621686
0.425022
1.71902
0.570989
0.785076
3.72807
0.704564
2.63317
0.636876
5.42827
2.72413
0.371681
1.31723
0.712368
0.49773
0.519944
3.37171
0.355962
5.81792
0.271162
2.92101
2.56725
4.5732
0.525122
3.55708
4.20218
0.220354
0.821357
0.805652
0.739009
0.165895
0.562576
2.64792
2.90767
2.48341
1.24206
2.66501
1.49248
4.55679
3.65136
4.40812
0.343215
0.615784
0.550155
4.30068
2.27608
0.451923
4.96899
0.318144
3.16945
0.358983
4.26045
0.479269
0.65505
0.270474
0.692367
2.02361
1.49688
0.82979
0.590374
4.25071
2.77183
0.620077
0.60657
2.91973
2.24901
0.599482
1.27293
1.44861
0.265179
0.726808
1.61165
2.96348
5.26531
0.340821
3.43881
0.530424
0.897963
0.674263
3.18113
2.61414
0.375775
0.447235
0.982716
3.36564
0.686862
2.70492
1.15551
0.648797
0.398688
2.94844
2.15949
2.7175
4.27441
0.604517
0.511917
0.578121
4.55234
2.14777
0.995799
0.4506
5.34954
4.35879
0.283218
0.715368
0.554327
1.25174
0.410165
1.60203
1.18378
0.442551
2.71772
0.64805
1.05616
2.87217
3.55895
0.478574
0.41962
0.318888
1.97696
4.82486
6.83196
0.359097
0.436357
0.498881
0.123422
3.33217
4.26254
2.63277
0.957147
0.422724
2.55501
0.427165
0.524851
0.828438
0.590773
5.09157
4.35384
0.72716
0.647816
1.88994
1.33419
0.949948
5.84402
1.74027
0.860391
2.62481
2.16367
2.95512
5.49417
5.5584
1.96565
0.132775
4.12903
2.48915
2.62776
1.00543
0.952299
0.485373
0.582041
1.27243
0.519085
0.71557
0.332872
1.48135
2.7508
0.218255
6.48926
0.117276
4.2776
5.62821
0.364125
4.8046
0.99572
0.442081
2.15029
3.56875
2.84405
3.01857
0.591675
0.553907
1.0763
0.438682
3.22139
2.96763
0.00772716
0.637514
0.897347
0.62183
3.10878
0.437491
0.785941
2.73058
0.275549
0.319754
0.764973
0.479256
0.26861
0.484843
0.315491
0.421542
0.337774
0.708161
2.33271
0.260461
0.592717
5.28474
0.467167
0.560798
4.4838
1.81935
2.31076
0.41507
4.59699
3.74323
0.904597
4.2562
0.30071
4.93057
0.634684
2.56068
6.14846
0.339491
2.56302
0.892933
0.737597
0.384169
5.60467
4.34491
0.433329
4.88867
0.476197
3.65533
2.99181
0.943143
1.89722
0.181811
4.93757
2.07045
1.11751
4.91826
0.743913
0.557603
1.22329
1.64734
0.61266
0.603061
0.415203
0.577909
0.606448
1.63733
0.54737
0.950502
1.0258
0.873854
0.600165
2.6972
3.1772
3.61174
3.16278
0.772469
2.1421
1.4076
0.597108
5.7663
5.64597
0.605653
0.689199
2.07751
3.27701
0.040859
3.8374
5.90613
2.78776
2.43785
2.68408
2.95522
0.874572
0.905621
4.65468
3.35458
0.435944
0.582199
0.437071
2.24921
0.0742048
1.02181
3.22127
1.49408
4.18662
0.365974
5.29687
0.264391
2.59595
0.254326
0.7431
1.34783
3.12622
2.4446
0.640312
2.33766
0.503939
0.264261
0.21688
0.570226
0.283691
3.39875
2.83818
0.422072
0.503538
4.68143
3.04804
3.01402
2.4388
0.913189
0.302023
0.277085
2.47151
3.10576
5.80905
3.55537
5.42896
0.483585
0.104221
0.188077
2.61329
2.26445
0.641514
0.877691
0.384893
0.820512
0.177582
4.67263
0.268501
2.37481
0.746383
0.642634
4.36689
0.402115
0.615641
2.88818
1.85435
0.416247
2.514
0.477349
0.617676
3.0323
0.673389
0.937203
1.45319
1.34174
3.77928
0.66839
2.99166
0.536138
0.865066
2.25142
1.11874
6.18042
0.305175
0.626019
2.50146
1.2842
4.48465
1.81817
0.419114
4.7989
2.78897
6.01077
2.65635
0.372196
0.390288
0.538652
0.396157
0.576855
0.591019
0.306597
0.644265
2.66261
4.20768
0.943766
2.64708
1.0441
0.289625
4.39771
3.00049
0.493897
0.379567
0.596985
3.37257
0.665437
0.571679
0.410092
0.552369
0.506222
1.27787
5.32183
1.30806
3.47279
0.627459
0.0690872
3.13533
0.995906
0.76349
0.811281
4.31544
5.82747
2.83375
0.474462
0.663439
3.48014
1.5233
1.12785
1.59621
0.427283
2.76737
0.479723
2.81293
2.77537
4.84157
0.415878
0.67871
2.68646
3.31069
0.399811
0.755535
0.589278
1.54747
0.132488
0.156034
0.704107
0.580946
3.13781
5.75292
0.422776
4.02619
2.44446
0.27944
2.13714
3.25206
3.46884
0.5526
4.42553
5.80023
0.267029
6.61873
2.10256
3.2596
0.253198
2.76733
4.85465
3.71493
1.06884
6.37583
2.59308
0.633359
2.92409
5.57227
0.458842
4.14683
0.311714
3.83778
0.488538
2.73124
0.362423
0.553282
6.56277
0.624105
3.60246
2.94695
1.88
0.594592
0.339119
0.732601
2.52667
0.286008
0.281901
2.55333
0.34688
0.998388
0.301395
0.535816
0.545259
1.00433
5.05523
1.32934
0.996022
1.86803
1.18791
0.587183
2.92212
0.846434
0.346171
0.321771
2.64595
0.547049
0.554965
0.208085
1.75745
0.457779
0.57537
4.54415
0.637986
1.08771
4.11952
0.437188
3.66348
0.391814
0.777197
0.386388
0.48288