/*--------------------------------*- C++ -*----------------------------------*\
  =========                 |
  \\      /  F ield         | OpenFOAM: The Open Source CFD Toolbox
   \\    /   O peration     | Website:  https://openfoam.org
    \\  /    A nd           | Version:  10
     \\/     M anipulation  |
\*---------------------------------------------------------------------------*/
FoamFile
{
    format      ascii;
    class       volScalarField;
    location    "1800";
    object      p;
}
// * * * * * * * * * * * * * * * * * * * * * * * * * * * * * * * * * * * * * //

dimensions      [0 2 -2 0 0 0 0];

internalField   nonuniform List<scalar> 
10435
(
-0.00152892
-3.13005
-12.2527
-4.66532
-10.2873
-12.972
-12.1842
-12.4411
-12.8244
-11.8259
-5.52361
-8.57785
-11.6637
3.1325
2.94684
-12.1136
3.21376
-11.6207
-12.8397
-0.715962
-12.0306
-3.99251
-11.8482
-10.2224
-12.5766
3.21122
3.21473
-11.7696
2.71015
-12.5813
-11.9152
-6.62586
-12.5471
3.04855
-11.7803
0.127759
-11.6471
2.1415
3.62392
-11.6413
-13.4164
-11.4207
3.62025
-2.793
-11.6757
-11.2478
-12.5564
3.36834
-12.9448
-3.78568
-12.2743
-12.0135
3.19697
2.44959
3.86632
2.46197
-11.2178
2.90173
3.15812
-11.4432
3.33483
-1.99118
3.07035
-11.3318
-11.8982
-12.0472
3.13616
3.10486
-12.2785
-9.32946
2.99577
2.6548
4.04595
-11.9189
2.64368
3.59929
-8.16889
-12.1181
-12.8999
2.66363
-5.58384
0.707758
3.31376
2.77209
-6.48854
1.02045
0.347395
-3.30473
2.32359
-0.513674
-4.31218
-5.44589
0.0608386
1.71953
-1.39946
1.0468
-6.30231
2.88196
3.44572
-7.90597
2.22078
-11.8387
1.10264
-2.3304
-12.1017
-3.73086
-0.619585
-4.62812
-7.43022
2.31129
-2.95612
-11.073
1.32693
1.80456
-7.02233
-3.12135
-8.47236
0.18718
-3.86124
-7.64557
-8.71842
3.94808
-0.75369
2.80554
-8.44146
3.29216
-6.98938
3.73594
-9.60024
2.27944
3.42449
-7.24202
-12.144
2.92632
2.80402
3.77609
1.29106
-5.46722
-2.78087
-2.27713
-1.48128
-11.7941
3.23543
-10.7896
-4.80531
3.29058
2.20174
-12.0434
3.34349
-10.0068
3.26872
-11.1811
-0.259794
-10.7033
-12.2523
3.25274
-9.47726
-1.73701
-12.2199
-4.71001
-11.1412
3.12243
-6.0859
-7.35941
2.32953
-9.88468
-12.4834
-7.0244
-9.19665
-10.8451
-11.8427
3.29203
2.32288
2.97599
-9.72893
-3.38494
-0.905827
3.25936
-2.10816
3.05265
-4.31145
-12.2848
-9.67581
3.12572
-11.1206
3.76574
3.10474
-12.0661
-11.3125
-11.2959
-8.91523
3.37503
3.13059
0.281884
-10.3813
-12.1796
3.58699
1.73749
3.35544
-11.8973
2.6039
3.62674
-11.7698
3.0046
-11.9588
-8.09374
-5.02475
-6.26778
2.89752
-5.65177
3.64304
-12.3266
-9.68566
-8.25691
3.46255
3.23891
1.7683
3.4119
1.83815
3.24897
2.97431
3.04019
3.30211
2.85395
3.01353
-11.9793
2.07044
2.33906
-11.7216
3.39736
3.27112
-12.2059
1.98676
-10.8023
2.37221
3.34358
-10.7613
2.49609
-9.97927
-11.983
-1.91789
3.26484
3.38387
2.43817
-7.40882
-12.8754
1.90848
-12.2887
0.96734
-2.10314
0.676144
1.7412
-12.178
-6.50221
-12.2343
-10.9225
0.0376109
-12.1115
3.21026
3.10501
-11.6006
-12.1185
2.76356
-8.25271
1.30721
3.5225
-1.06817
-11.7175
3.61804
-8.79544
-11.8487
-12.5565
-12.0082
-11.4318
1.66439
-8.15853
3.01081
-9.67184
-11.8406
-12.8292
-12.5024
3.2521
-11.8914
2.42482
1.21016
3.75811
-11.3439
2.35178
2.84978
2.77711
2.73048
-6.02402
2.75344
-12.5106
2.65479
-0.112867
3.37666
0.68416
-8.743
-12.2634
3.2549
-9.24473
-11.7671
0.725741
-7.86305
3.06209
3.56651
-10.2671
-12.2848
2.89558
-1.36142
2.71844
-0.882067
-12.163
-12.1932
-0.181302
3.47007
-11.1594
3.19817
-7.77037
-12.6707
2.35453
0.52152
3.51482
-13.0493
-12.0971
1.18735
-11.6234
3.31217
2.85714
-12.0024
2.8164
2.90359
-12.0963
-10.3389
2.96455
2.66939
2.06038
3.13809
2.25465
0.606861
3.23999
3.52859
0.702995
-0.0126503
2.65458
3.02793
3.74463
3.62275
-13.017
3.01607
-12.6359
0.649704
-11.5544
-13.442
-14.138
-11.5309
-11.7038
2.4487
2.96977
2.09855
3.57105
2.31283
3.21489
2.61129
0.272797
2.87872
-9.15992
3.06057
-13.0524
3.51601
-0.0359467
-11.2012
-14.5005
3.67093
-0.731232
2.4221
2.74249
2.93566
2.95284
-1.71865
2.55235
-12.7121
3.12325
-12.3959
-13.8196
-11.4149
-11.3509
-14.0398
-11.6499
-11.9985
3.25918
3.3993
2.76007
3.14204
-12.1724
2.8022
-12.1758
-0.281318
2.79211
-1.29953
3.34875
3.12259
-12.5008
2.21442
-12.5372
-9.77192
3.54227
2.8612
0.774085
-12.5333
0.628697
3.05862
2.78721
2.35975
3.36081
3.07515
-11.9647
0.879484
2.46714
2.72784
3.46451
-12.5309
3.59875
3.86339
-13.5589
3.15237
18.0743
10.0941
12.2221
10.2847
10.9285
10.268
10.3248
10.1374
9.51355
15.7281
9.08682
10.7801
9.45135
9.83037
9.42192
9.44144
9.30044
9.19179
13.5316
8.03238
9.57626
8.72328
8.96266
8.71966
8.71516
8.61808
8.50095
11.8465
7.34278
8.59659
8.05086
8.22082
8.0873
8.08843
8.039
7.94691
10.3361
6.84582
7.7823
7.46183
7.59555
7.54015
7.56084
7.56095
7.49556
8.99419
6.47984
7.11937
6.96944
7.08096
7.0799
7.11873
7.14869
7.13372
7.89051
6.26834
6.59935
6.57048
6.66555
6.70299
6.75961
6.81671
6.84928
7.03911
6.15369
6.19709
6.24882
6.33193
6.39533
6.46499
6.54132
6.54551
6.37469
5.9493
5.86105
5.97985
6.06166
6.14325
6.22242
6.30421
6.36389
5.80217
5.60031
5.56831
5.75004
5.84054
5.93497
6.02205
6.11076
6.17922
5.36979
5.28827
5.35151
5.5642
5.66154
5.76093
5.85194
5.94286
6.03603
5.18774
5.15234
5.24345
5.42709
5.51803
5.61094
5.69676
5.77695
5.89913
5.12756
5.14232
5.20624
5.32515
5.40075
5.48218
5.56366
5.65054
5.73984
5.03604
5.15903
5.18782
5.23731
5.29481
5.36099
5.43315
5.51425
5.57386
4.96874
5.16513
5.16366
5.14973
5.19164
5.24478
5.3114
5.38898
5.46465
4.895
5.11199
5.10858
5.04897
5.08127
5.12418
5.18454
5.2538
5.33444
4.71962
4.9318
4.98695
4.92271
4.9571
4.99577
5.05161
5.11114
5.20356
4.51697
4.67054
4.82091
4.77705
4.82154
4.86273
4.92067
4.98512
5.08248
4.36803
4.43389
4.64672
4.62393
4.67704
4.7202
4.77598
4.83817
4.90701
4.24399
4.24455
4.47578
4.47034
4.52783
4.57187
4.62381
4.68086
4.74275
4.08599
4.08496
4.30615
4.31996
4.37808
4.42336
4.47445
4.53536
4.58587
3.85238
3.95935
4.13483
4.17199
4.22485
4.26705
4.31196
4.36723
4.34975
3.50308
3.92735
3.98226
4.04359
4.08667
4.12269
4.16213
4.20528
4.16855
3.09668
3.96262
3.78037
3.85424
3.88728
3.92101
3.97264
4.01872
3.96799
2.94792
4.25965
3.94365
4.00789
4.00406
3.96413
3.99556
4.0366
3.61464
13.4377
13.7243
14.2413
14.7978
15.398
16.0486
16.7352
17.4566
18.2046
18.9661
19.7325
20.4937
21.2322
21.9443
22.6194
23.2428
23.8118
24.3167
24.747
25.0991
25.3709
25.5921
25.838
25.9932
25.7668
25.4056
25.3388
25.6871
26.2961
26.8154
27.3214
27.8318
28.0802
28.1581
28.1736
28.1082
27.9603
27.76
27.5101
27.2323
26.9333
26.6197
26.2893
25.9478
25.595
25.2155
24.8141
24.3895
23.9268
23.4413
22.9423
22.4376
21.9411
21.4568
20.9825
20.5398
20.1142
19.71
19.4896
4.71599
4.53463
4.47861
4.40992
4.32386
4.2307
4.15247
4.09741
4.06763
4.06584
4.09407
4.15286
4.24144
4.35812
4.50106
4.66877
4.85997
5.07607
5.32113
5.60252
5.93237
6.32707
6.807
7.36788
8.05281
8.69493
9.0227
9.01584
8.62701
8.06841
7.62368
7.31131
7.07309
6.88656
6.74639
6.63382
6.5377
6.45237
6.37388
6.30078
6.23282
6.17094
6.11818
6.07841
6.05668
6.0603
6.09637
6.17427
6.29815
6.42584
6.5393
6.69988
6.93368
7.21502
7.53444
7.88904
8.24225
8.59031
9.10536
8.38924
8.6259
8.849
9.08617
9.33397
9.59288
9.86234
10.1416
10.4296
10.7243
11.0245
11.3279
11.6325
11.9359
12.2364
12.5326
12.8237
13.1097
13.3921
13.6724
13.9535
14.2373
14.5233
14.7997
15.0487
15.2419
15.3778
15.4667
15.4961
15.4484
15.383
15.3156
15.2383
15.1579
15.0785
15.0001
14.9223
14.8455
14.7699
14.6957
14.6238
14.5541
14.4876
14.4243
14.3647
14.3091
14.2575
14.209
14.1634
14.1188
14.0746
14.0248
13.9622
13.8697
13.7574
13.6445
13.5268
13.4223
13.2879
5.77197
5.75479
5.80735
5.86123
5.92157
5.99211
6.07366
6.16814
6.27715
6.4022
6.54486
6.70626
6.88677
7.08679
7.30564
7.54243
7.79578
8.06363
8.34428
8.63514
8.93362
9.2357
9.53585
9.82536
10.0918
10.3167
10.4821
10.5803
10.6108
10.5842
10.522
10.4363
10.3334
10.2182
10.0939
9.96259
9.82599
9.68612
9.54602
9.40891
9.27876
9.15937
9.05518
8.96981
8.90708
8.86939
8.85827
8.87419
8.91569
8.98054
9.06632
9.17201
9.29372
9.42977
9.57647
9.72377
9.86745
10.0236
10.2289
6.83793
6.97623
7.12851
7.28885
7.4567
7.63149
7.81217
7.99821
8.18888
8.38325
8.58096
8.78157
8.98424
9.18914
9.39559
9.60347
9.81252
10.0219
10.2315
10.4405
10.6476
10.8508
11.0467
11.2315
11.399
11.5443
11.6619
11.7502
11.8081
11.8373
11.8437
11.8308
11.8031
11.7646
11.7173
11.6652
11.61
11.5528
11.4978
11.447
11.4025
11.3661
11.3394
11.3232
11.3184
11.3241
11.3395
11.363
11.3917
11.4233
11.4551
11.4834
11.5051
11.5324
11.552
11.5539
11.5546
11.5718
11.5716
5.91417
5.94575
6.02015
6.10112
6.19069
6.29064
6.40152
6.52369
6.65768
6.80319
6.96141
7.13203
7.31521
7.51042
7.71656
7.93234
8.15618
8.38356
8.61493
8.84749
9.07918
9.3051
9.52103
9.72465
9.90618
10.0654
10.1946
10.2954
10.3656
10.4058
10.4213
10.4103
10.3794
10.3333
10.2693
10.1972
10.1159
10.0212
9.92658
9.83279
9.74426
9.66461
9.59707
9.5449
9.51187
9.49589
9.49996
9.5215
9.55998
9.6141
9.68197
9.76022
9.84616
9.9351
10.0297
10.1278
10.2232
10.3321
10.456
6.09778
6.17555
6.27855
6.39036
6.51029
6.63887
6.77417
6.91765
7.06851
7.22415
7.38573
7.55194
7.72448
7.90172
8.08218
8.26617
8.45652
8.64065
8.82846
9.01381
9.20047
9.37969
9.54932
9.7169
9.85864
9.99185
10.0983
10.1911
10.2636
10.313
10.3519
10.3615
10.3572
10.3487
10.3144
10.2855
10.252
10.1906
10.1472
10.1033
10.0657
10.0358
10.0145
10.0041
10.0134
10.0273
10.0598
10.0997
10.1494
10.2062
10.2668
10.3292
10.3895
10.4471
10.5043
10.5592
10.6079
10.67
10.7228
5.84588
5.86891
5.9225
5.99239
6.0643
6.15718
6.24933
6.37288
6.50183
6.61019
6.75525
6.89999
7.06301
7.24218
7.42301
7.6248
7.84136
7.99752
8.1797
8.36673
8.57234
8.75896
8.92598
9.12333
9.24736
9.39127
9.47916
9.57396
9.64797
9.69761
9.7579
9.75515
9.75259
9.77146
9.70801
9.71193
9.73878
9.60613
9.53779
9.46738
9.40847
9.35689
9.31239
9.27914
9.32436
9.31771
9.38461
9.41992
9.44471
9.49249
9.56761
9.67007
9.75761
9.84909
9.95145
10.0641
10.1724
10.3139
10.4202
5.62869
5.71033
5.76943
5.87993
5.98129
6.11039
6.2038
6.28246
6.42707
6.64547
6.70484
6.85164
7.04262
7.18323
7.38811
7.46933
7.69457
7.86332
8.05583
8.18416
8.3749
8.52072
8.65797
8.84934
8.93122
9.07261
9.13195
9.22595
9.34433
9.30944
9.47074
9.46471
9.41182
9.48158
9.40535
9.47207
9.37423
9.21533
9.32224
9.26867
9.2366
9.24371
9.18256
9.17238
9.19236
9.15899
9.18301
9.17196
9.30224
9.39359
9.44439
9.49878
9.56953
9.69384
9.80892
9.8834
9.98459
9.86587
10.0431
-0.219505
-0.375626
-0.252943
-0.0438192
0.269662
0.665647
1.04432
1.40362
1.7477
2.02019
2.26306
2.54083
2.79118
3.03536
3.4153
3.92626
4.46956
5.04644
5.70638
6.47938
7.37405
8.40807
9.63417
11.1768
12.5513
3.36578
3.42184
3.35562
3.24655
3.15065
3.16967
3.28574
3.44864
3.60592
3.66561
3.5975
3.46709
3.34148
3.26974
3.32162
3.47591
3.59746
3.66781
3.78176
3.9754
4.22464
4.50814
4.82379
5.20134
5.4475
2.56278
2.58533
2.6204
2.65667
2.72051
2.83481
2.97851
3.12455
3.24983
3.31664
3.32602
3.30756
3.28716
3.29252
3.36587
3.50953
3.69023
3.90603
4.18038
4.52622
4.94659
5.44621
6.03353
6.7193
7.55472
2.8635
2.86235
2.90406
2.93905
2.98827
3.05828
3.14363
3.23123
3.30916
3.3628
3.39108
3.40552
3.41994
3.44824
3.50619
3.5976
3.7162
3.86409
4.0503
4.27943
4.55039
4.85707
5.1885
5.51763
5.86044
2.89864
2.88961
2.92947
2.9681
3.02192
3.08677
3.16071
3.23347
3.29934
3.35126
3.38894
3.41896
3.45011
3.49094
3.55179
3.63861
3.75372
3.90182
4.08961
4.32157
4.60213
4.93413
5.32435
5.77234
6.3449
2.97242
2.96888
3.00845
3.04294
3.09326
3.1478
3.2106
3.27044
3.32691
3.37556
3.41526
3.45067
3.48819
3.53197
3.5896
3.66666
3.76736
3.8966
4.05912
4.25666
4.49251
4.764
5.07151
5.39777
5.78836
3.05841
3.01938
3.0646
3.09182
3.14043
3.18676
3.24491
3.29673
3.34847
3.3958
3.43524
3.47203
3.51286
3.55748
3.61334
3.68601
3.7801
3.9013
4.05421
4.23882
4.46308
4.72375
5.03068
5.37303
5.80985
3.13657
3.05358
3.11567
3.13444
3.18498
3.22357
3.28205
3.32625
3.3738
3.42032
3.45673
3.49141
3.53545
3.5799
3.63318
3.70175
3.78915
3.90101
4.04097
4.20687
4.41507
4.65326
4.95006
5.28798
5.68694
3.1274
3.07665
3.17362
3.17534
3.22711
3.2445
3.30913
3.34002
3.39883
3.44437
3.48174
3.50943
3.55002
3.58896
3.64027
3.70255
3.78187
3.88461
4.03666
4.19507
4.38016
4.61548
4.85623
4.98695
5.22769
-14.0357
-12.9823
-1.48576
7.97444
3.75331
3.68786
-1.94089
4.51121
-3.04288
8.83026
-11.7739
4.87401
-16.5665
2.93481
-7.17096
6.4217
-9.1804
7.81446
8.93137
-17.973
-17.5704
7.23956
-11.5115
7.62898
4.46153
5.96583
4.42761
3.23178
-11.5971
-10.6544
8.13392
7.16168
-13.4909
-12.7912
-10.9204
4.18164
-3.16281
-6.67772
-5.27077
7.96485
-12.2751
8.13849
6.76496
3.22021
4.97311
8.53821
-11.5427
-10.2473
-10.8628
-13.2719
-11.5381
-11.9945
-16.7226
8.07972
-1.85461
-2.80918
2.89928
-17.5915
3.5628
-9.49844
4.36862
-0.65942
3.77631
6.47722
4.45095
3.31771
6.65885
6.94235
-15.2209
-12.3393
-3.33119
7.64153
3.89564
-16.2074
4.1324
-18.1874
-14.4332
-11.435
3.31915
8.54064
-12.6932
4.57342
4.92743
-9.3241
3.94847
4.4102
3.79198
-11.612
-13.585
5.59415
6.2871
5.91049
9.10042
4.9374
3.78038
-11.6278
5.81923
-11.2521
7.95063
-9.58352
3.46077
-12.7685
3.45859
7.18782
3.63852
3.48926
-11.5695
-13.5085
5.75428
-10.3419
6.35885
5.25555
-10.8873
7.21968
-17.1508
-10.7507
-12.8567
8.22115
-16.1525
5.35402
6.52729
5.17628
7.96418
4.59633
-13.384
6.77569
-12.1592
-18.0397
2.94965
-10.4965
5.18814
-16.3288
-11.8523
-9.5588
3.15796
3.83622
4.97618
3.57664
4.80851
-17.1965
6.46016
-3.78976
-10.0928
6.58739
-11.1957
5.93347
6.38797
-15.1597
5.04839
-11.1302
1.30179
2.46571
6.0405
-7.59889
4.56013
-10.2062
3.81002
8.20154
-12.2969
9.08065
7.28649
-3.43601
5.58128
-11.2762
8.39508
-9.23061
2.84929
4.21313
7.34332
3.84632
2.94169
6.63384
6.60809
-9.474
6.16149
3.3033
-12.499
-11.7865
-10.3017
8.05432
-10.9224
7.64095
-16.3461
-10.2254
3.6723
9.11269
-9.54033
5.69949
-13.7702
5.57682
-10.1469
-10.3015
-6.29237
-2.67517
-7.3621
-13.525
4.15678
7.17218
-10.8777
-11.4104
-15.2914
7.04518
4.74921
5.30697
1.59625
8.60709
6.95136
3.52043
-11.3397
8.2376
3.65304
5.08378
-10.9595
1.49842
1.08855
-11.9347
3.6661
9.37652
9.24573
4.74622
3.41547
8.22642
4.6717
0.0514628
9.95538
-12.6779
6.38795
-8.9371
5.7336
3.85593
-9.96077
4.34279
7.43606
5.2789
-4.67829
8.5792
-11.7818
3.26012
-10.3861
-6.70945
7.65091
4.23503
8.41667
3.29922
3.90338
4.20718
6.67623
3.58361
6.03978
8.66081
5.83669
3.37573
7.43663
-11.3261
6.39515
4.0203
-10.6798
-13.9817
-12.287
10.1161
6.10844
2.91415
5.06696
4.43639
-15.9116
4.70616
9.1429
5.52418
-2.52284
4.22497
-15.5137
-6.93908
7.68671
9.43678
9.30958
5.26211
6.92935
-4.6671
2.7918
-11.7065
3.48812
1.25563
7.71383
8.30557
-10.0078
5.27239
3.39525
9.39449
-11.9419
-10.047
-4.36327
5.76236
7.60023
-11.9552
-12.1677
-12.0759
-11.4832
6.03861
8.89422
-10.5804
-11.0424
7.04648
9.0501
5.45201
-11.2345
8.79098
-17.9761
6.69039
-17.5203
4.74993
7.0772
8.29976
-13.6135
3.06499
7.61309
-2.42257
-11.5347
7.52036
4.48254
-9.37867
-12.664
5.79807
9.08654
8.15994
4.00521
4.73929
-13.1189
-13.4707
6.22173
-16.9191
8.23171
-7.53363
3.42865
8.63193
-11.9875
4.34571
4.62924
5.20891
5.73692
6.55965
5.10791
4.76862
-10.4221
7.6815
-15.8028
3.69712
3.6107
7.86132
4.00086
-10.3635
-1.11057
9.14776
6.95635
-12.3464
-11.9756
9.97624
-8.29134
2.87686
8.3441
-9.36883
-11.4833
-11.5392
9.14932
-12.9319
8.31991
3.86237
6.57941
-11.9193
4.85161
-13.5003
8.65185
-7.96803
-11.5552
-7.9717
-15.4708
4.92321
5.08968
8.74385
9.23715
8.33484
-11.3942
5.77865
-13.1955
3.07302
3.12721
-10.5124
8.55846
-17.8955
-12.0535
-9.95264
0.161618
8.89878
4.46207
-11.7405
-10.5468
9.40465
8.55821
-13.3032
8.42389
-11.2069
4.42323
6.75329
3.84758
-13.2921
4.65789
9.18528
-3.05958
4.44806
1.07231
7.30793
-10.7261
4.72396
-10.3712
4.63406
5.74236
9.91479
-10.7173
-10.1784
9.08482
6.05473
7.99736
8.99935
5.51178
3.39321
7.66052
-11.2271
5.79457
8.62906
6.72158
7.14876
4.65152
4.00603
5.36307
3.37502
-3.00633
6.8595
5.99858
7.53223
7.79764
9.82631
9.02666
-6.6607
-12.2077
2.03284
-15.2794
3.60349
3.34614
-6.71773
3.6199
3.29559
-8.08281
7.68491
5.35003
-10.6198
8.71287
-12.3657
-9.14189
4.6812
6.35328
-16.1455
5.53383
2.96123
-10.8758
-11.3012
-11.269
4.02676
3.68918
0.153665
9.02845
-11.612
3.39069
3.97322
-11.4106
9.87239
4.6319
-14.0077
5.17328
3.89305
-14.6576
-14.8198
0.966038
-6.21294
8.72162
4.78465
-9.84595
3.88606
4.60141
8.17697
-12.7663
7.25789
-8.72202
5.99374
4.96875
-11.6547
4.80435
3.60078
-8.02558
4.69543
9.12559
-13.5513
6.91539
-3.80978
4.9824
3.29082
-13.0719
-12.4138
5.87954
5.50565
-2.94932
6.21945
7.58118
-11.7977
6.29988
5.45538
9.16771
-11.9228
-11.5811
-10.4817
4.88353
0.592588
8.72149
-10.3622
-17.8935
6.45759
-12.7065
8.43666
-11.3984
-12.8945
8.56158
7.41736
3.39233
7.198
4.09438
-4.64869
5.33608
1.5486
5.95877
-10.7215
-10.9194
5.76588
-10.1534
-10.3636
6.49523
-11.7733
6.95273
0.955988
5.47881
3.39993
4.7058
-5.09541
-4.71837
-6.52586
2.97539
-11.2396
-10.6022
-11.403
4.56455
8.63676
-15.9312
-11.878
6.33953
-10.3358
5.86531
-14.6619
-10.5247
9.08161
0.765501
3.49715
7.39687
5.19603
-13.7108
8.80673
-7.4927
3.70552
3.69312
-10.6854
-10.4698
-11.6427
3.37859
5.2646
-16.1341
-17.3163
6.8061
8.75408
4.68066
-13.2307
7.30171
3.68759
-4.88215
8.06957
3.69857
3.87477
6.47323
-8.94202
8.65712
3.47172
-13.4797
-10.8474
3.74585
7.82913
-10.303
3.2611
8.4533
8.89504
-17.5176
6.65067
4.92452
7.47005
9.65692
7.56875
7.29631
-5.17326
4.3248
7.30966
3.45818
-16.2589
9.53956
3.59741
1.68313
6.75623
4.12003
5.47731
8.36908
2.28259
4.34219
-9.73793
-9.48885
3.20403
-13.0666
4.0276
4.1296
3.92207
8.93273
6.1148
5.37772
-15.2618
6.09409
4.8018
2.5402
-10.0014
0.552539
3.04841
3.32007
6.94037
3.79137
9.10053
6.08153
1.83747
-9.91716
-8.6905
-12.2843
9.51945
8.78804
6.8607
8.68781
7.53418
-10.4844
10.8156
-17.9028
8.44587
-11.5972
9.00224
-11.5058
6.71984
3.99866
4.66732
-12.4282
-6.80726
3.2654
-17.1487
4.28559
9.45797
4.05185
-10.9779
8.58266
5.60752
-9.08882
4.26021
8.65229
8.32923
7.77944
-15.759
9.07504
5.10532
9.17454
2.99602
8.56869
-10.9768
-11.8657
6.75235
-3.70704
9.04808
-11.7609
4.96629
8.75004
8.48738
5.70624
-4.81945
5.82117
7.74151
3.60671
7.2582
6.29093
7.54116
8.38543
-9.47331
-9.01996
1.46714
-10.773
-5.36592
-12.8428
-11.0184
9.84672
3.82283
4.03999
9.17859
5.59757
2.99826
6.21552
4.42442
-15.6498
8.09369
7.02346
3.91589
8.0265
6.47268
4.33306
1.59616
-12.813
-12.2033
9.01089
-10.9656
-0.788652
-11.9019
-17.433
-12.4761
-12.1512
4.5554
9.4202
5.96451
8.58468
7.84568
5.34393
-12.3057
-12.674
7.99317
-13.0103
2.01352
9.53354
4.38577
4.87093
-9.2896
1.53899
4.49951
-1.45515
-8.68989
-15.2624
-11.6929
9.19152
9.08585
4.1004
8.74282
-11.5562
0.662926
-11.7199
-8.18185
3.90886
-8.90764
5.58724
9.32063
3.53885
3.67436
3.60786
9.1986
6.14115
3.29753
5.44465
5.27803
6.9873
5.20611
5.04336
8.46356
-11.1412
-5.35193
7.27278
-0.440756
6.34894
-16.7157
4.01062
9.79035
7.82533
-14.9123
1.2703
8.85366
6.28206
-10.771
1.54431
-13.5266
5.13358
-14.4796
-13.0096
-10.5015
3.22209
-9.21429
2.61411
8.28419
-11.7838
7.90456
4.41753
5.38335
-13.9381
-1.67757
7.10983
3.9111
-13.0114
3.9713
0.581634
-10.0202
8.14806
7.41811
-4.55754
-11.9084
-13.5919
8.71926
9.27537
8.84669
-14.684
-4.21105
7.96675
4.18167
3.6498
-12.6188
9.73355
4.3673
-13.0228
9.39901
5.13603
4.74692
9.03597
-14.1584
5.34316
-15.3639
8.33414
4.92
-12.9087
7.41145
8.55499
8.78269
3.34501
-14.9888
-11.6917
9.16056
8.66589
5.1266
-8.14433
-16.6823
-0.405422
5.48218
-13.7601
-6.52147
5.88164
3.89391
3.54706
-10.09
8.54579
-14.8815
6.28854
5.89402
-9.80727
5.8968
6.03573
2.60504
-15.802
-10.9393
-9.70452
-9.84462
8.80727
-13.2242
-8.30372
8.10874
-2.02925
4.10635
3.58889
-16.4179
5.08477
4.88154
-17.051
1.87678
9.89337
9.79264
-13.7609
2.70991
6.12647
-10.0627
-11.6953
-10.8352
8.267
5.39045
-10.377
-11.3364
-11.8477
-14.9384
-13.3024
2.24708
9.03737
0.368228
-10.3838
7.2548
7.42089
2.41128
-9.33205
6.36922
-0.694509
-13.1003
6.82875
3.63612
8.58801
-9.80498
-3.3708
-11.2455
-10.7475
8.42756
3.22772
0.880174
5.15968
-12.0809
-17.2931
8.9049
5.25242
5.0626
9.4779
-14.0574
-11.8462
5.44307
-10.7407
7.42948
-11.6369
8.50364
4.15181
4.59748
-5.29764
-11.7799
3.11242
-15.0592
6.25433
6.46681
-4.23399
6.79995
-8.13469
-9.79497
-10.3909
5.30462
7.66113
-3.60801
5.86023
7.11116
4.41843
-10.874
6.46047
3.39177
-11.6013
-3.61786
3.67583
5.47984
6.80126
7.21648
3.65191
7.60976
-16.0216
8.73278
5.31271
-10.5548
-17.1234
-6.19032
5.67059
5.7408
-0.0336015
9.72061
-10.8806
3.70453
3.55345
-10.8149
5.81507
4.85695
2.27817
4.131
-11.2933
8.63558
8.03498
8.56219
-2.08696
-1.97964
-12.8361
4.68106
-13.2966
6.49787
6.29564
6.03975
-10.7103
-10.5726
7.34594
-9.85542
9.72043
-10.5611
5.42544
-11.1183
3.92244
4.18887
7.09365
-0.985811
-6.0414
5.42772
8.46553
-16.4012
9.19067
8.18244
4.79776
8.51218
5.43648
-10.6878
6.50875
5.62152
-9.23888
3.38826
-9.89763
9.49666
7.28009
7.10413
9.97876
7.25494
3.60605
-12.7371
9.83777
2.97518
9.14521
5.08726
0.309449
-10.5786
8.10568
8.61664
5.94565
7.12018
9.27017
7.09944
-10.3131
8.46778
-16.7084
6.12351
-4.51144
-11.3359
3.3658
-15.838
6.04785
-12.2487
-11.4714
-10.0634
4.71153
5.04926
3.29034
-11.5171
7.44342
0.886498
6.79153
4.41895
-11.3941
3.55288
7.88121
3.5756
9.01222
8.36895
9.9864
-11.9889
9.93068
-13.9988
8.29391
7.29683
8.70276
8.35715
-15.4349
9.74847
-16.332
-12.161
3.95233
7.01423
-11.1721
-11.0252
9.1877
9.10234
7.82114
6.75113
8.40581
3.38466
-11.3594
5.52316
9.3516
-15.3133
4.62216
1.5916
-5.46286
8.41145
3.87028
8.78964
3.42091
-11.4244
2.46996
-13.6598
7.98547
3.41968
7.21129
-12.9801
-13.1813
8.19064
9.32653
-13.0239
8.31017
3.63609
-10.6371
-11.7145
9.81084
8.83323
9.73385
3.23814
-12.632
4.48529
9.90125
-12.8297
-10.6433
9.29899
7.8162
4.14501
9.47701
5.22196
-16.0278
4.69444
-10.9025
4.80332
8.32971
4.16806
-15.4324
7.21268
-12.0045
-10.8594
-10.1656
-12.8237
-11.8783
8.18436
6.66474
-12.5986
-14.8497
4.92599
8.66777
5.42266
3.43125
7.68344
4.53284
5.2121
-8.816
3.92144
3.3422
-5.11055
3.56494
5.36412
5.82431
-10.1242
9.4757
-12.1258
-11.462
3.56274
7.67384
5.37657
7.17173
5.40404
-12.6158
1.93402
8.34848
4.95504
7.71722
-10.6165
-12.8976
6.48096
5.8787
3.92433
9.11584
3.92699
3.28289
8.90099
3.5495
2.4977
-11.4905
8.72304
6.41965
-6.80637
5.49168
4.43536
6.57755
3.22778
5.31585
7.72909
-16.1298
5.95695
5.57702
-10.8675
3.87464
0.0210477
-5.55885
8.65961
4.92314
8.29673
-8.31768
6.34548
-14.1677
8.83527
-4.97116
-13.3515
-17.6842
-11.5859
9.69645
4.41378
-15.883
-12.7811
3.51368
7.23611
9.89036
-11.7003
8.2827
6.33771
9.65153
8.10792
0.0696064
9.77912
3.73034
9.13673
-11.408
-16.5366
8.16522
8.93068
7.82834
7.76968
5.15399
-11.7176
8.78607
1.31843
-13.7695
-16.7992
8.79065
-12.966
-11.3101
-17.1755
-12.0673
2.57319
-12.1401
-12.2553
-10.1843
9.27134
-10.7948
9.21088
-3.85697
9.26078
8.67397
-13.9312
-8.74327
-11.137
-11.9907
3.39105
7.35755
-1.76976
-12.5714
9.31846
-12.8083
7.32568
-17.2789
8.66745
-11.3246
1.51287
3.65376
5.3637
-17.5198
5.0811
2.24489
-16.93
8.31298
-10.9218
5.64514
7.42619
-7.99616
-1.36588
5.70473
-15.7607
-7.0157
8.73995
-14.0815
8.97701
8.57356
3.36822
3.96546
-12.8921
-13.6239
9.45293
-13.2283
7.77799
-16.4126
9.06765
8.25385
7.2368
-17.27
-0.332232
-10.4782
6.63219
-10.5088
4.46556
-14.1692
-12.4458
1.35697
7.65926
-11.9532
6.9394
6.11826
8.42332
-11.7176
-12.7471
4.45592
-13.425
6.13967
5.38892
-2.28995
6.37908
5.05761
-14.2561
8.30245
8.78669
9.70593
5.18204
7.42547
9.04164
-13.4556
-11.7521
5.45651
8.83791
5.85759
-13.3399
-11.3982
4.66467
2.84965
3.47322
-13.6622
2.79896
-0.495136
-14.6654
4.30804
-14.8474
-12.565
4.52039
4.8417
8.87429
8.6814
4.06094
6.41513
3.5909
3.31081
-12.3668
7.06425
-13.0685
4.68692
-12.0679
7.90575
-9.8062
1.36412
-15.8519
-11.3995
3.63821
1.65745
6.68734
6.94264
6.54757
-11.0695
-10.668
8.57954
8.79921
5.51284
7.26951
5.05626
5.7958
-12.6525
-10.5329
-15.9522
-12.9602
8.09101
4.10087
-12.869
8.09073
-11.5243
8.76398
4.50049
3.64201
6.22293
4.65386
6.33477
4.46297
1.68844
-12.7702
-11.6041
9.29833
4.98206
-14.7155
-4.02057
5.25999
-11.1221
-12.6201
-10.1562
7.07126
-16.8629
5.0977
8.26051
8.43485
4.28716
9.58986
-10.9059
-11.9765
7.96022
3.39572
-16.9463
5.87731
-12.6194
-9.85017
6.44179
3.101
7.84183
3.47305
-11.9715
4.04288
-11.4829
3.54703
8.28899
3.502
8.18903
3.18356
7.87498
6.6792
8.55952
3.96358
5.81739
-13.9996
8.54425
-9.20623
5.82336
6.19219
7.90073
3.53554
5.37791
-6.21564
-12.3676
5.81829
-12.0499
9.00443
-12.6305
7.55222
7.69296
4.56037
4.05681
-11.0668
6.87277
6.49185
-4.12704
-9.943
7.14752
8.86571
8.85966
7.36858
-3.09584
5.44355
5.66636
-13.8042
4.65429
8.88678
6.6296
-13.1582
5.97404
-11.7942
-11.893
9.93991
2.42397
7.35025
8.75948
-13.1141
6.32348
8.68799
7.76261
-15.777
3.50655
7.52221
4.4291
-5.49351
-9.55802
3.59187
5.36018
-10.482
8.65743
-1.46062
-12.0453
6.96248
-0.0125926
-11.4758
8.42267
-12.424
8.65886
6.12752
8.16679
4.67249
-8.11678
-10.2416
7.39422
8.87059
-12.0925
6.84447
7.50306
9.19197
2.89731
-2.67387
4.21679
3.83498
9.02073
5.95541
4.00876
6.35006
3.52854
8.17958
-9.76964
-15.3176
3.91148
-12.8624
3.5709
-13.8311
-11.271
-14.9104
-10.3569
9.92836
8.44832
-15.0932
7.78425
7.92492
-10.8943
5.96138
3.59536
-11.8005
-15.9377
7.3792
-9.97952
3.87306
-11.3059
3.65009
9.18602
-4.32789
3.34578
-13.6256
6.2772
9.14389
3.13898
6.30785
-7.38523
1.33449
7.7104
-12.3468
3.29924
-12.161
3.5172
-13.0419
6.85683
8.6174
5.28857
9.0989
-16.2354
-9.78043
-14.7129
3.7887
-13.2431
-10.7842
9.49359
-17.1011
0.630823
9.30494
-16.2182
-10.9523
6.8684
3.60293
3.71471
-12.9659
4.88445
9.65256
-11.2974
-14.5144
3.11842
-12.6165
-11.7778
5.13762
3.41424
-2.47516
3.53239
-15.6416
3.62341
8.63169
4.78687
-10.369
3.93908
-0.51879
-12.0604
4.39012
-0.296659
-7.58309
8.58784
-11.5102
8.58679
-16.5245
7.16405
4.82607
6.01362
8.60086
5.45736
5.98212
8.59277
3.63655
9.85964
-12.4665
-14.5804
5.31186
-17.0573
3.96807
4.9217
6.88815
7.61937
6.11167
-6.25832
9.68444
-3.48085
-12.5311
-5.17943
-14.6175
9.63001
7.16801
-12.1664
8.06411
3.55742
6.61562
4.90491
5.5061
-10.2217
8.06594
8.71484
4.16389
3.46115
3.36798
-4.49122
0.358685
-1.50607
-13.0863
5.23393
4.62461
4.76032
6.52716
4.16545
5.21807
3.46089
4.89628
7.61252
7.62656
9.67878
-1.54211
-12.4843
-11.9001
3.54687
8.17787
-0.742255
-10.1801
-11.043
3.8479
5.33751
2.84661
8.85206
4.30979
3.53788
-10.6268
-0.052366
4.48793
5.80343
6.38716
3.71931
-12.0415
4.28999
7.16489
4.83468
6.28755
-11.3291
9.00046
-7.40179
9.96391
3.60897
3.86463
8.51216
-11.1576
1.32393
7.04193
-12.6985
-14.2045
2.2684
9.38269
6.30942
-10.3549
-13.2246
-12.8332
5.25342
-16.8262
8.63672
10.0316
-10.1572
-10.9781
4.53756
5.54627
-1.08155
-3.557
8.1554
4.02523
-10.9521
4.68858
9.9035
6.61189
8.07397
4.8571
9.17415
8.86766
8.63787
-12.6274
7.39441
4.12462
3.73166
8.18447
1.88708
3.61255
-16.4445
-0.0735551
0.228759
8.42452
8.04644
6.94455
9.91604
6.56339
4.70561
-14.7372
8.50722
3.64516
9.35621
0.168135
5.99003
3.93488
8.81084
-12.1961
4.12064
-14.0956
7.05841
9.96529
8.14208
6.82892
8.72652
-11.3306
7.38107
3.72893
7.80087
7.82746
-10.6083
5.24499
8.59392
-13.1685
-13.0079
4.23548
-11.2497
8.85041
-12.7574
9.20473
-13.3555
9.41063
-2.64034
5.16353
-11.6512
3.33286
-9.82141
-9.97954
-10.4787
2.62408
-12.9942
5.07939
4.15513
5.28769
-11.5374
8.62621
3.76663
-16.5107
-10.751
-12.0372
8.09664
-13.0178
3.91938
6.53104
4.40736
0.936935
8.89549
-5.12548
7.438
6.05099
8.67362
9.73652
7.42826
-13.7645
8.68647
8.98165
-10.8489
0.624455
3.95462
5.30192
-10.5396
7.84347
8.15273
-12.1452
7.65622
-4.68306
-2.66925
8.09467
3.46448
-17.7626
5.58251
7.40335
9.15475
4.36492
7.72011
5.9214
-12.7795
4.06647
-11.2942
3.0611
3.54267
-11.0732
1.05206
2.71133
8.54385
4.18617
5.95849
4.0865
-14.1494
-11.7639
8.80621
6.96535
5.58945
-10.366
3.58497
-0.452654
4.02746
3.55293
8.08396
8.67805
-1.85152
3.55477
-14.1408
-11.6169
8.92931
-8.7961
9.522
-13.9838
0.945581
4.52113
7.44911
3.57827
7.37582
6.44762
-9.95398
-7.55514
-13.1271
-11.0092
-16.5786
7.75595
4.12833
-3.76439
4.19472
-2.10941
-12.6605
8.5571
-10.5204
-14.7723
-9.82306
8.39337
3.99354
5.26012
8.07841
-13.0174
9.16409
-12.2505
8.40353
9.78754
3.60328
-10.7833
-11.0918
5.51934
9.682
9.59491
7.42017
6.92967
0.244276
-15.4349
7.15139
4.92163
-11.5329
8.7504
-12.2699
8.38866
5.5716
8.27859
-11.2611
7.99407
5.56791
8.79899
8.99549
3.24222
6.22682
-10.8507
3.3926
5.63767
6.86266
5.16803
-15.9181
4.95192
4.03004
-6.02551
-11.4412
3.52954
-13.4231
8.64345
-10.7475
-16.4997
8.23119
3.29029
6.66864
5.95888
3.79879
-14.9633
0.765659
7.59196
4.88616
-7.0666
-8.53455
-9.05751
-14.5668
2.09944
8.75271
-11.5566
3.53413
4.69933
5.04817
7.78396
-15.8307
-12.5419
6.84069
-13.6847
7.87994
-15.0606
-3.95541
-10.6544
-13.0093
-10.5641
2.84134
3.2877
9.14115
3.55026
-16.6789
-4.91152
9.42649
0.355871
3.87015
-11.515
8.46349
-3.73455
-7.59454
-10.5439
3.52923
-11.3714
2.97105
-13.0634
-11.3985
9.17275
4.019
6.86515
9.10047
5.97458
-4.35354
9.02317
6.25898
-12.2204
3.83135
2.59047
3.35901
6.79603
8.72712
-13.6714
-13.1136
3.00175
-10.6608
5.20135
8.20217
6.82495
-11.6493
-13.0737
-12.0302
6.27658
8.12734
7.29467
-10.9307
3.03374
0.438144
5.62046
-12.5874
6.11828
3.09266
-16.4721
8.34477
9.86865
3.59142
3.48997
5.30573
9.18174
-5.5068
6.19239
8.36955
-11.8894
6.32623
-9.85105
-10.3804
3.20246
-5.64709
8.87465
-10.4028
8.98245
-10.5182
4.88391
8.01893
9.00441
8.9463
7.40688
2.23278
9.41108
-15.8673
6.55077
8.37455
6.94923
-12.9312
8.03327
8.31083
6.21379
-13.3371
5.53797
-10.0777
-10.6566
8.96565
8.29705
-1.63479
-12.9672
-15.7116
-1.66009
9.57028
3.60925
-13.4795
-11.6401
-10.8932
-9.92729
8.37951
7.01799
5.86244
3.31447
9.6216
8.87506
7.63407
3.94786
8.597
-15.8148
7.31138
-13.8513
7.63344
5.76844
-7.292
5.91856
-15.8193
3.44127
4.24473
5.41361
5.28708
9.66316
4.20603
-4.49313
1.78694
6.11764
-2.37651
-12.7535
-10.3213
9.71277
1.79766
-10.7406
-13.0622
-12.4334
-12.7963
-9.94731
9.22645
7.35456
6.44778
4.84465
-14.3327
-12.5621
3.8445
9.48177
3.37418
9.04663
-9.83718
6.06527
-14.3963
4.99752
4.02174
5.78086
-11.1594
6.05201
-17.6646
-11.2148
2.98276
3.21538
5.84465
8.82656
3.59591
4.7996
-3.63503
8.74811
8.84125
5.94832
8.80534
3.20211
-11.8152
-0.418057
-6.01994
-8.2643
-12.994
-12.304
3.45376
7.56996
-10.6308
9.47825
5.27737
-16.8117
8.58391
8.66481
7.13723
-5.6125
-12.354
6.80883
7.84963
7.85151
-12.6163
6.16761
-14.3193
-13.179
-17.2203
-13.8615