/*--------------------------------*- C++ -*----------------------------------*\
  =========                 |
  \\      /  F ield         | OpenFOAM: The Open Source CFD Toolbox
   \\    /   O peration     | Website:  https://openfoam.org
    \\  /    A nd           | Version:  10
     \\/     M anipulation  |
\*---------------------------------------------------------------------------*/
FoamFile
{
    format      ascii;
    class       surfaceScalarField;
    location    "1800";
    object      phi;
}
// * * * * * * * * * * * * * * * * * * * * * * * * * * * * * * * * * * * * * //

dimensions      [0 3 -1 0 0 0 0];

internalField   nonuniform List<scalar> 
16133
(
3.32094
1.5523
-1.94828
-2.92471
-2.81237
2.82444
-3.11384
3.10181
-0.840448
-3.25935
2.56124
1.53857
0.829547
-1.21161
-5.17563
5.55774
-1.29129
0.532969
5.29692
-4.5386
4.17734
1.41838
-5.48513
-0.110594
-3.71179
1.15703
2.2085
0.346266
-0.014575
-3.9494
0.976623
2.98735
-2.23842
3.52416
2.36359
-3.64933
0.511151
3.43857
0.0054329
-3.95515
3.62767
-3.39917
2.66382
-2.89228
5.12498
-2.32427
2.26095
-5.06162
-0.226425
-3.60008
2.16583
1.66067
1.26291
-1.02433
1.12098
-1.35956
1.46006
1.33606
-1.53321
-1.84483
1.39849
-4.24852
4.69487
-1.11609
0.933272
-0.841518
-4.51655
1.01748
3.27447
0.224581
-6.11531
4.95761
-1.08073
1.36766
3.72412
-1.77083
-0.821034
3.26664
-2.74503
0.299428
0.53567
-4.96447
5.25836
-4.47656
4.41722
-1.78549
8.17131
-6.66467
-0.335685
-1.17096
-4.13291
4.93086
-0.286795
-0.00308415
0.0033963
-0.0890617
0.0887492
0.0496524
-0.00496594
-0.0312086
-0.013478
-0.183236
-2.19865
1.97756
0.404323
-0.0269745
0.0503598
-0.00802388
-0.0153616
-3.55426
2.47628
3.47444
-1.05808
-5.30891
2.89255
-2.61231
2.63194
3.60807
1.30322
-3.64201
2.32422
-0.0602045
0.148407
0.0178411
-0.106045
-3.68456
-3.6116
3.68033
3.61583
-1.80255
3.09211
2.03894
-3.32847
-2.8828
-5.3886
4.58684
-0.0685671
0.104234
-0.120792
0.0851257
0.0520484
0.110074
-0.0281749
-0.133947
-5.99254
1.01436
-1.13715
-3.6667
0.117874
-3.67343
-0.878807
-1.37064
-0.631187
0.224928
1.77689
-1.9285
4.65754
1.50172
-4.23073
4.97869
-2.11988
-5.7416
3.37203
-1.19327
0.483198
0.0274312
-0.577847
-0.551197
0.874537
0.254504
2.80253
1.56906
-0.84743
5.1072
-4.73881
0.167279
-2.02152
-2.74891
-4.87939
5.03496
-3.86519
3.70961
0.150668
0.0502665
-0.148886
-0.0226132
0.0361046
0.0366656
-0.050157
-0.0201137
0.0616515
0.0685362
-0.011256
-0.0153613
-0.000357177
5.25578
-2.69932
-7.94507
-0.0949382
-0.0996401
0.152547
0.0420318
-0.533881
0.854477
-0.772936
0.452336
5.01622
0.0922566
0.0202239
0.0381876
2.8869
-2.38877
-3.31048
0.112572
0.0096913
-0.0178511
-0.104412
2.27768
-4.47982
4.12033
-1.9182
2.36984
-1.8677
-3.98136
2.51934
-1.79733
-0.478174
-0.333961
0.278253
-0.04678
0.378915
-0.00359139
-0.328543
1.25403
2.98924
-5.81764
0.257079
-1.10411
0.0213236
0.00193511
-0.0458721
0.13379
-0.0406383
0.0149394
-0.108091
-1.42861
0.748908
2.50602
-1.82633
2.18211
-3.35058
-2.81289
1.41889
-2.07152
2.1127
-1.45837
-1.66492
1.91537
1.20791
-6.71601
1.87995
-0.981578
-2.31742
1.45733
2.01713
-2.36883
2.25197
1.42007
1.77776
-1.5337
1.17484
5.67984
-5.36305
0.0432486
-0.360012
2.83537
-2.44142
-1.66726
1.27331
0.0654015
0.148811
-0.163946
0.046566
0.0436857
-0.0541473
6.33391
-0.0526184
-0.601436
-3.09596
2.67817
2.32822
-1.9104
2.98699
-2.62839
-2.79178
2.4332
4.55213
-4.09646
-2.38415
1.78492
-0.82167
1.21441
-2.17765
3.3399
-2.72538
2.37248
5.0659
1.84841
-2.36215
6.45223
-2.59792
3.20134
1.18633
2.25127
-2.42122
1.95488
3.73974
-2.50757
2.10774
-3.44111
-1.45738
0.760281
5.37557
0.316435
0.961593
-1.62716
-1.40596
0.93278
-0.705932
0.627628
-4.79378
5.18532
-0.224046
-0.167445
2.14329
-2.00336
3.79187
-3.83261
1.14885
-1.10813
2.30105
-2.38106
2.02436
0.726543
3.87242
-0.807111
1.33033
3.51867
1.05033
-0.139728
-0.116112
-1.10353
8.2507
-0.81325
1.91782
-1.39781
1.25777
-0.850292
-4.31937
0.430871
-3.71582
-1.40808
-2.14107
-1.60466
1.3043
-1.5288
1.30555
-0.187768
-3.84571
-4.48442
-0.375974
4.90417
0.657155
2.62855
-3.75229
-2.72071
4.08888
-5.18899
0.0603231
4.75274
2.24137
3.11897
-0.456144
1.02985
-0.209915
-2.27831
2.92956
-3.02637
-1.61036
0.952926
3.962
-3.30454
-3.11734
3.24675
2.33631
-2.4657
-0.063686
0.146882
0.00902959
-0.0922264
-0.0374562
1.43353
2.28645
-2.69014
6.21811
-5.02797
-0.0779656
0.061842
-0.0149254
0.0310489
2.85562
-3.03246
-2.96193
-2.76771
-3.36806
-1.26529
1.06764
-0.0172067
0.14606
0.0049365
-0.0654926
0.186611
0.110287
-0.231404
-1.0885
1.24264
-3.59524
0.349516
5.52468
-3.30889
-4.03403
1.05133
-1.59108
1.28118
-4.10532
5.45988
-0.135403
-0.149329
-0.193444
-0.825361
3.01576
-5.87482
3.68442
5.46816
1.62284
-1.60256
1.63146
-1.65174
3.3499
-3.48545
0.966226
-3.56793
-1.45127
1.05171
-0.71653
3.93385
2.02483
-6.78402
-0.720936
0.207785
-0.0646948
-1.94223
-6.49869
3.46053
-3.03633
4.57388
2.37572
4.24421
2.20913
-0.227191
0.056807
0.3762
-0.205815
3.47104
1.88555
-2.10982
0.772263
-2.50951
3.01808
2.79377
-3.30231
7.10563
1.94103
-3.31076
-5.7359
-1.08184
0.937529
-4.39056
4.42461
5.91246
-5.92374
-1.09222
-1.37992
2.09481
4.68377
3.77572
-3.32175
2.62659
-2.94686
-5.38546
0.36316
5.08265
-4.32211
3.45316
-2.5793
3.44826
-4.71633
-5.6383
-0.269856
-3.09079
0.730168
-0.707495
-1.45128
-0.00583953
0.0213223
-0.0151028
-0.000380124
-1.03377
1.02946
5.18819
-5.13526
1.97192
-2.13806
-3.48529
-3.3762
-0.976219
0.91492
-0.0619859
0.123284
-3.92438
0.656337
-0.000512692
0.0976078
-0.0467359
-4.2238
-0.295109
-3.98757
2.32854
0.122734
-0.0941631
-1.17292
-1.72807
3.12497
-3.71432
2.9895
3.45627
3.93956
4.02013
-3.22542
0.180665
0.0645616
-0.179825
-0.0857037
-0.00946855
1.57262
-3.65844
1.5129
-1.75768
2.85304
-3.32708
-0.718192
1.18228
-1.31376
-3.01785
0.123246
2.70817
1.97779
0.218998
-0.0238429
-0.263722
-2.67972
2.27006
0.228293
-1.04833
1.36902
-2.8834
4.26583
-1.57018
0.101779
0.119054
0.0288623
-0.0353445
5.6132
-0.307529
-0.016391
-0.397015
2.92591
2.78742
5.38601
0.0497261
-0.0059135
-1.61557
1.30771
-1.69178
2.2578
0.162305
-0.168103
-0.206952
0.212752
-0.0719086
0.0688244
0.784207
0.0977928
-0.0438319
-0.0544741
0.899015
-0.167087
0.18299
0.238531
-0.213079
-0.160856
1.80054
-0.171912
-2.66239
-0.0305257
-0.115801
0.198097
-0.05177
3.02044
0.0701058
-0.0757918
0.00568604
-0.826636
-2.66476
3.60338
-5.20268
2.03585
1.45851
0.644197
-0.614836
-0.0913478
-3.05022
-0.00180283
1.76562
-6.32327
-0.08711
0.0757102
0.0411883
-0.0297888
-0.648437
-6.51513
-0.116875
-0.022049
0.108398
-5.19
-1.06804
-2.72171
5.34441
-3.79745
-0.0334035
-0.174671
0.0922723
0.326879
-0.393825
0.229252
-0.0199491
-0.0243052
0.0329987
-2.30449
2.62136
-1.12533
2.47661
1.49226
-1.11584
-0.00701966
0.00116596
0.00585307
-1.84989
-3.59863
0.00918218
-0.0197328
0.0105511
2.2409
-3.34247
0.759874
1.39835
-0.662635
1.12691
0.00508677
0.00409534
0.511981
-0.207841
-0.266986
0.450928
0.240687
-1.93797
2.59111
-0.295826
-0.732324
4.32451
0.212339
-0.0748717
0.0431984
-0.929583
0.21375
-1.18165
1.56875
-2.85154
-0.611047
2.05133
-0.70084
3.58037
0.0636452
0.00517903
1.07118
-3.95527
1.66722
-0.925813
-2.72456
1.18513
1.18198
0.344966
-2.29411
2.60398
-0.210122
-0.0348967
0.0769162
5.30972
-0.0959057
0.0509377
0.0539951
-0.058367
-0.0754298
0.113018
-3.06044
0.0899911
0.12667
-0.124081
0.0166813
0.022876
-0.0395575
-2.00086
-3.63989
4.32529
-0.538371
0.143114
0.254534
-1.98977
0.0038689
-0.0108888
-1.82801
-5.56329
0.273873
0.0501888
0.0637095
-0.0629608
0.87546
-0.214266
-0.0445191
-3.65347
-0.176407
-4.29534
-2.30085
-0.00305152
0.160402
0.391256
-0.10369
-0.527782
-0.0360751
0.0532937
-0.00752757
0.0623906
0.19865
-0.196478
-0.360715
-3.02894
-2.96818
0.0599623
0.00368284
0.195156
-1.93553
0.0611957
1.73524
-0.0788308
0.0779086
0.0597523
0.0576948
-0.0672584
0.613397
0.201507
-0.0668113
0.0123517
-0.0217496
-0.00108567
0.00733841
-0.129269
0.223651
-0.0765413
0.0172948
0.00789601
0.0628178
-0.00285548
0.0112689
-0.0263719
0.226778
0.0485238
0.00872254
-0.016058
-0.213224
2.34214
-1.67888
1.58871
0.00202685
-0.0715435
-0.0313378
0.273198
-0.46886
-0.697972
1.17497
0.515426
-1.22597
-0.891423
-0.0213335
0.0336939
-0.0580436
0.0463231
-0.0818349
0.0112438
0.011904
0.0215469
-0.00224997
0.0650678
-0.167061
-0.0730142
2.51154
-0.0144974
0.0555993
-1.44132
0.445915
-2.1525
-0.797521
-0.130298
0.00326063
-0.0345984
-0.0682934
0.0205758
-0.0478804
0.0718792
-0.0258759
0.715347
-0.978141
-1.3021
0.748705
-0.0860922
-1.44512
-0.459148
-0.0294993
-0.0217596
-1.46247
-0.672076
-0.041934
-0.0287867
0.0406739
0.165313
-0.62691
0.0519951
0.023567
-0.0717228
1.95768
-0.0238747
0.018225
0.0259233
0.108115
2.39232
0.210071
-0.230561
-1.10384
-0.250571
-0.993891
-0.00380914
0.112345
-0.108535
-0.00859014
0.116154
-0.111373
-0.0133138
0.12622
-0.121496
-0.0185064
0.134728
-0.129535
-0.0238289
0.143933
-0.138611
-0.0294593
0.152272
-0.146642
-0.0352015
0.160562
-0.15482
-0.0410718
0.168316
-0.162446
0.175655
-0.17
-0.0467266
-0.00352608
0.115871
-0.00777967
0.120408
-0.012097
0.130537
-0.0168414
0.139472
-0.0216556
0.148748
-0.0267231
0.15734
-0.031871
0.16571
-0.037093
0.173538
0.18089
-0.042328
-0.00345745
0.119328
-0.00710978
0.12406
-0.0109644
0.134392
-0.0151638
0.143672
-0.0194615
0.153045
-0.0239353
0.161814
-0.0284749
0.17025
-0.0330702
0.178134
0.185504
-0.037684
-0.00319877
0.122527
-0.00641831
0.12728
-0.00982702
0.1378
-0.0134946
0.147339
-0.01727
0.156821
-0.0211801
0.165724
-0.0251498
0.17422
-0.0291849
0.182169
0.189623
-0.0333039
-0.00284886
0.125376
-0.00569005
0.130121
-0.00867577
0.140786
-0.0118559
0.150519
-0.0151336
0.160098
-0.0185247
0.169115
-0.0219927
0.177688
-0.0255558
0.185732
0.193308
-0.0292414
-0.0024416
0.127818
-0.00493784
0.132617
-0.00753846
0.143387
-0.0102805
0.153261
-0.0131085
0.162926
-0.0160407
0.172047
-0.0190568
0.180704
-0.0221834
0.188859
0.196581
-0.0254564
-0.00190849
0.129726
-0.00414516
0.134854
-0.00642969
0.145671
-0.0088123
0.155644
-0.0112537
0.165368
-0.0137888
0.174582
-0.0164337
0.183349
-0.0192162
0.191641
0.19955
-0.022185
-0.00125776
0.130984
-0.00337928
0.136975
-0.00542198
0.147714
-0.00749808
0.15772
-0.00961755
0.167487
-0.011837
0.176801
-0.0141833
0.185695
-0.0167055
0.194163
0.202238
-0.0193933
-0.000804987
0.131789
-0.00282943
0.139
-0.00462021
0.149504
-0.00641621
0.159516
-0.0082621
0.169333
-0.0102249
0.178764
-0.0123558
0.187826
-0.0146861
0.196494
0.20482
-0.0172683
-0.000842125
0.132631
-0.00263103
0.140789
-0.00407875
0.150952
-0.0055768
0.161014
-0.0071808
0.170937
-0.00897119
0.180554
-0.0109835
0.189838
-0.0132628
0.198773
0.207362
-0.0158051
-0.00117297
0.133804
-0.00256859
0.142184
-0.00364802
0.152031
-0.00488712
0.162253
-0.00631695
0.172367
-0.00801341
0.182251
-0.00999933
0.191824
-0.0123237
0.201097
0.210063
-0.0150247
-0.00124938
0.135053
-0.00223579
0.143171
-0.00309711
0.152893
-0.00419173
0.163347
-0.00556095
0.173736
-0.00723622
0.183926
-0.00925824
0.193846
-0.011628
0.203467
0.212895
-0.0144597
-0.000778248
0.135832
-0.00149251
0.143885
-0.0023131
0.153713
-0.00341327
0.164447
-0.00482518
0.175148
-0.00659081
0.185692
-0.00874206
0.195997
-0.0113196
0.206045
0.215886
-0.0143106
-3.9958e-07
0.135832
-0.000511201
0.144395
-0.00137101
0.154573
-0.00254741
0.165624
-0.00406393
0.176664
-0.00596593
0.187594
-0.0082819
0.198313
-0.0110539
0.208817
0.219119
-0.0142869
0.000788559
0.135043
0.000475596
0.144708
-0.000412721
0.155461
-0.00167165
0.166883
-0.00330088
0.178293
-0.00533574
0.189629
-0.00782895
0.200807
-0.0108407
0.211829
0.222664
-0.0143858
0.00115717
0.133886
0.00116827
0.144697
0.000355994
0.156273
-0.000888472
0.168127
-0.00254428
0.179949
-0.00464382
0.191728
-0.00723857
0.203401
-0.0103831
0.214973
0.226392
-0.0141115
0.000910739
0.132976
0.00132305
0.144285
0.000792888
0.156804
-0.000265668
0.169186
-0.00181149
0.181495
-0.00386071
0.193778
-0.0064667
0.206007
-0.00965929
0.218166
0.230266
-0.0135332
0.000476202
0.1325
0.00115043
0.143611
0.000999885
0.156954
0.000256304
0.169929
-0.00105804
0.182809
-0.00296316
0.195683
-0.00551193
0.208556
-0.00876492
0.221419
0.234291
-0.01279
0.000233031
0.132267
0.00103029
0.142813
0.00121754
0.156767
0.000837276
0.170309
-0.000147859
0.183795
-0.00177614
0.197311
-0.0041087
0.210889
-0.00720575
0.224516
0.238222
-0.0111371
0.000227553
0.132039
0.0011315
0.141909
0.0016176
0.156281
0.00161902
0.170308
0.00102557
0.184388
-0.000224249
0.198561
-0.0021971
0.212862
-0.0049562
0.227275
0.241819
-0.00855245
0.000342128
0.131697
0.00145645
0.140795
0.00226633
0.155471
0.00267301
0.169901
0.00252254
0.184539
0.00171852
0.199365
0.000166035
0.214414
-0.00226047
0.229702
0.24523
-0.00567144
0.000588204
0.131109
0.00202556
0.139358
0.00320621
0.15429
0.00404496
0.169063
0.00439596
0.184187
0.00414378
0.199617
0.00317528
0.215383
0.00130192
0.231575
0.248133
-0.00160162
0.00120206
0.129906
0.00293147
0.137628
0.00445836
0.152763
0.00571712
0.167804
0.00659793
0.183307
0.00697344
0.199242
0.0067417
0.215615
0.00558407
0.232733
0.250601
0.00311591
0.00231216
0.127594
0.00419169
0.135749
0.00597208
0.150983
0.00763532
0.166141
0.00905356
0.181889
0.0100804
0.198215
0.0107085
0.214987
0.0104305
0.233011
0.252688
0.00834354
0.00351346
0.00531507
0.00741204
0.00960703
0.0116704
0.0134071
0.0151703
0.0167766
0.0188929
-0.0866328
-0.00123181
0.0878646
-0.0852593
-0.0013735
-0.0837363
-0.00152307
-0.0820514
-0.00168486
-0.0801988
-0.00185259
-0.0781709
-0.00202792
-0.0759612
-0.00220968
-0.0735675
-0.00239365
-0.0709841
-0.00258345
-0.0682119
-0.00277217
-0.0652501
-0.00296177
-0.0621003
-0.00314977
-0.0587654
-0.00333482
-0.0552457
-0.00351969
-0.0515461
-0.00369954
-0.0476687
-0.00387738
-0.0436211
-0.0040475
-0.0394111
-0.00420993
-0.0350529
-0.00435819
-0.0305658
-0.00448703
-0.0259793
-0.0045865
-0.0213373
-0.00464194
-0.0167006
-0.00463661
-0.0121443
-0.0045563
-0.00773954
-0.00440469
-0.00346611
-0.00427341
0.000793637
-0.00425966
0.00516396
-0.00437025
0.00978701
-0.00462297
0.0147046
-0.00491752
0.0198124
-0.00510777
0.0250093
-0.00519678
0.0302299
-0.00522056
0.0354185
-0.00518845
0.0405255
-0.00510694
0.0455128
-0.00498729
0.0503491
-0.00483625
0.0550082
-0.00465905
0.0594729
-0.00446458
0.0637296
-0.0042567
0.0677731
-0.00404347
0.071603
-0.00382989
0.0752205
-0.00361737
0.0786316
-0.00341111
0.0818399
-0.00320822
0.0848541
-0.0030142
0.0876769
-0.00282277
0.0903151
-0.0026382
0.0927699
-0.00245468
0.0950424
-0.00227251
0.0971396
-0.00209714
0.099067
-0.00192737
0.100837
-0.00176987
0.102454
-0.00161753
0.103928
-0.00147332
0.105265
-0.00133713
0.106471
-0.00120636
0.107561
-0.00108933
-0.000974592
-0.0864271
-0.00249436
0.0876896
-0.085068
-0.00273254
-0.0836033
-0.00298778
-0.0820234
-0.00326475
-0.0803224
-0.00355369
-0.0784864
-0.00386383
-0.076509
-0.00418716
-0.0743761
-0.00452653
-0.0720794
-0.00488016
-0.0696088
-0.00524281
-0.0669547
-0.00561592
-0.0641097
-0.00599476
-0.061065
-0.00637956
-0.0578204
-0.00676424
-0.0543729
-0.00714705
-0.0507233
-0.00752704
-0.0468752
-0.00789558
-0.0428363
-0.00824888
-0.0386135
-0.00858092
-0.0342196
-0.00888097
-0.0296662
-0.00913986
-0.0249597
-0.00934845
-0.0200966
-0.00949967
-0.0150521
-0.00960076
-0.00978596
-0.00967087
-0.00430885
-0.00975047
0.00129407
-0.00986257
0.00693566
-0.0100118
0.0125091
-0.0101964
0.0179855
-0.0103939
0.0234139
-0.0105362
0.0288123
-0.0105951
0.0341625
-0.0105707
0.0394406
-0.0104665
0.0446169
-0.0102832
0.0496629
-0.0100333
0.0545506
-0.00972394
0.0592608
-0.00936917
0.0637734
-0.00897719
0.0680759
-0.00855927
0.0721572
-0.00812471
0.0760068
-0.0076795
0.0796243
-0.00723493
0.0830067
-0.00679344
0.086156
-0.00635763
0.089077
-0.00593519
0.0917785
-0.00552426
0.0942651
-0.00512487
0.0965528
-0.00474232
0.0986549
-0.00437462
0.100587
-0.00402977
0.102363
-0.00370341
0.103993
-0.00339904
0.105491
-0.00311583
0.106866
-0.0028479
0.108132
-0.00260364
0.109298
-0.00237213
0.110374
-0.00216519
-0.00197435
-0.0945222
-0.00390727
0.0959352
-0.0929997
-0.00425506
-0.0913598
-0.00462771
-0.0895995
-0.00502502
-0.0877035
-0.00544968
-0.0856647
-0.00590264
-0.0834724
-0.0063794
-0.0811197
-0.00687925
-0.0785952
-0.00740469
-0.0758887
-0.00794929
-0.0729914
-0.00851319
-0.0698961
-0.00909008
-0.066597
-0.00967865
-0.0630881
-0.0102731
-0.0593651
-0.0108701
-0.0554309
-0.0114613
-0.0512817
-0.0120448
-0.0469224
-0.0126083
-0.0423565
-0.0131468
-0.037588
-0.0136495
-0.0326185
-0.0141094
-0.0274501
-0.0145169
-0.0220803
-0.0148694
-0.0165108
-0.0151703
-0.0107553
-0.0154264
-0.00484971
-0.015656
0.00116045
-0.0158727
0.00722919
-0.0160806
0.0133046
-0.0162718
0.0193356
-0.0164249
0.0253069
-0.0165076
0.0312101
-0.0164984
0.0370288
-0.0163894
0.0427403
-0.016178
0.0483257
-0.0158687
0.0537622
-0.0154698
0.0590279
-0.0149896
0.0641039
-0.0144452
0.0689743
-0.0138477
0.0736225
-0.0132074
0.0780394
-0.0125416
0.082218
-0.0118582
0.0861536
-0.0111705
0.0898426
-0.0104825
0.0932929
-0.0098079
0.0965039
-0.00914625
0.0994856
-0.00850594
0.102249
-0.00788846
0.104806
-0.00729906
0.107169
-0.0067376
0.109348
-0.00620899
0.111354
-0.00570947
0.1132
-0.00524511
0.114893
-0.00480892
0.116447
-0.00440128
0.117871
-0.0040278
0.119184
-0.00368539
0.120389
-0.00337011
-0.00308118
-0.101101
-0.00536308
0.102557
-0.0995323
-0.00582424
-0.0978367
-0.00632337
-0.0960062
-0.00685549
-0.0940339
-0.00742193
-0.0919103
-0.00802627
-0.0896259
-0.00866381
-0.0871662
-0.00933897
-0.0845251
-0.0100458
-0.0816916
-0.0107828
-0.0786573
-0.0115475
-0.075408
-0.0123394
-0.0719394
-0.0131473
-0.06824
-0.0139725
-0.0643082
-0.0148018
-0.0601356
-0.0156339
-0.0557232
-0.0164571
-0.0510706
-0.0172609
-0.0461794
-0.018038
-0.0410526
-0.0187763
-0.0356935
-0.0194685
-0.0301054
-0.0201049
-0.0242944
-0.0206805
-0.0182741
-0.0211906
-0.0120627
-0.0216378
-0.00569142
-0.0220274
0.00079438
-0.0223586
0.00734473
-0.0226309
0.013909
-0.0228361
0.020444
-0.02296
0.026921
-0.0229845
0.0333184
-0.0228958
0.0396141
-0.0226851
0.0457877
-0.0223517
0.0518143
-0.0218953
0.0576742
-0.0213296
0.0633471
-0.0206626
0.0688073
-0.0199054
0.0740376
-0.019078
0.0790259
-0.0181957
0.0837597
-0.0172755
0.088231
-0.0163294
0.0924348
-0.0153743
0.0963713
-0.014419
0.100039
-0.0134754
0.103449
-0.0125568
0.106606
-0.0116628
0.109525
-0.0108076
0.112213
-0.00998636
0.114687
-0.00921203
0.11696
-0.00848175
0.119047
-0.00779624
0.120956
-0.0071548
0.122709
-0.00656137
0.124317
-0.00600952
0.125794
-0.00550496
0.127149
-0.00504023
0.128391
-0.00461214
-0.00422525
-0.109724
-0.00695482
0.111316
-0.107998
-0.0075509
-0.106133
-0.00818808
-0.104121
-0.00886781
-0.101951
-0.00959136
-0.0996172
-0.0103604
-0.0971047
-0.0111763
-0.0944093
-0.0120344
-0.0915186
-0.0129365
-0.0884227
-0.0138787
-0.0851117
-0.0148584
-0.0815773
-0.0158738
-0.0778099
-0.0169147
-0.0738047
-0.0179778
-0.0695513
-0.0190552
-0.0650475
-0.0201377
-0.0602903
-0.0212144
-0.0552764
-0.0222748
-0.0500096
-0.0233047
-0.0444895
-0.0242965
-0.0387243
-0.0252337
-0.0327206
-0.0261086
-0.0264906
-0.0269105
-0.0200497
-0.0276315
-0.0134225
-0.028265
-0.0066426
-0.0288073
0.000252238
-0.0292534
0.00722048
-0.0295992
0.0142189
-0.0298345
0.0212068
-0.0299479
0.0281495
-0.0299272
0.0350155
-0.0297617
0.0417751
-0.0294448
0.0484032
-0.0289798
0.0548757
-0.0283678
0.0611632
-0.0276172
0.0672433
-0.0267427
0.0730959
-0.0257581
0.0787015
-0.0246835
0.0840474
-0.0235417
0.0891177
-0.0223458
0.0939102
-0.021122
0.0984178
-0.0198819
0.102644
-0.0186447
0.106592
-0.0174235
0.110265
-0.0162298
0.113676
-0.0150746
0.116834
-0.0139651
0.119751
-0.0129034
0.122439
-0.0118997
0.124912
-0.010955
0.127184
-0.0100688
0.129274
-0.00924385
0.131188
-0.0084754
0.132945
-0.0077665
0.134553
-0.00711373
0.136027
-0.00651359
0.137378
-0.00596298
-0.00545836
-0.117767
-0.00862739
0.119439
-0.115953
-0.00936409
-0.113994
-0.0101471
-0.111877
-0.0109856
-0.109587
-0.0118809
-0.107121
-0.012827
-0.104464
-0.0138326
-0.101606
-0.0148922
-0.0985356
-0.0160073
-0.0952437
-0.0171706
-0.0917185
-0.0183836
-0.0879517
-0.0196407
-0.0839314
-0.020935
-0.0796492
-0.02226
-0.0750997
-0.0236047
-0.0702776
-0.0249598
-0.0651791
-0.0263129
-0.0598085
-0.0276455
-0.0541643
-0.0289489
-0.0482533
-0.0302076
-0.0420796
-0.0314074
-0.0356564
-0.0325318
-0.0289971
-0.0335698
-0.0221223
-0.0345062
-0.0150597
-0.0353276
-0.00784194
-0.036025
-0.000506892
-0.0365885
0.00690709
-0.0370132
0.0143596
-0.037287
0.0218106
-0.0373989
0.029224
-0.0373407
0.0365622
-0.0371
0.0437932
-0.0366757
0.050888
-0.0360746
0.0578143
-0.0352941
0.0645473
-0.0343502
0.0710605
-0.0332559
0.0773225
-0.03202
0.0833172
-0.0306782
0.0890261
-0.0292507
0.0944412
-0.0277608
0.0995507
-0.0262315
0.104356
-0.0246867
0.108853
-0.0231419
0.113049
-0.0216195
0.116949
-0.0201302
0.120562
-0.0186872
0.123898
-0.0173012
0.126973
-0.0159788
0.129801
-0.0147272
0.132398
-0.0135523
0.134778
-0.0124491
0.136958
-0.0114232
0.138953
-0.0104708
0.140781
-0.009594
0.142449
-0.00878171
0.143973
-0.00803755
0.145368
-0.00735887
-0.00673162
-0.126694
-0.0104186
0.128485
-0.12475
-0.0113081
-0.122644
-0.0122536
-0.120365
-0.0132643
-0.117904
-0.0143417
-0.115247
-0.0154841
-0.112384
-0.0166954
-0.109302
-0.0179741
-0.105996
-0.0193141
-0.102448
-0.0207184
-0.0986529
-0.0221785
-0.0946015
-0.0236922
-0.0902809
-0.0252555
-0.0856839
-0.026857
-0.0808045
-0.0284842
-0.075638
-0.0301263
-0.0701779
-0.0317729
-0.0644352
-0.0333882
-0.0584073
-0.0349768
-0.0521035
-0.0365114
-0.0455261
-0.0379847
-0.0386912
-0.0393668
-0.0316148
-0.0406461
-0.0243137
-0.0418074
-0.0168242
-0.0428172
-0.00917747
-0.0436718
-0.00141384
-0.0443521
0.00643397
-0.044861
0.0143279
-0.0451809
0.0222267
-0.0452978
0.0300968
-0.0452108
0.0378913
-0.0448944
0.0455765
-0.044361
0.0531238
-0.0436219
0.0604937
-0.042664
0.0676645
-0.041521
0.0746066
-0.040198
0.081273
-0.0386865
0.0876548
-0.03706
0.0937318
-0.0353277
0.0994968
-0.0335259
0.104937
-0.0316712
0.11005
-0.0298005
0.114835
-0.0279264
0.1193
-0.0260846
0.123449
-0.0242794
0.127292
-0.0225305
0.130837
-0.0208463
0.134101
-0.0192427
0.1371
-0.0177255
0.139844
-0.0162971
0.142362
-0.0149664
0.144662
-0.0137233
0.146764
-0.0125726
0.148682
-0.0115119
0.150434
-0.0105337
0.152033
-0.00963693
0.153491
-0.00881693
-0.00806058
-0.135545
-0.01232
0.137447
-0.13349
-0.0133634
-0.131267
-0.0144761
-0.128857
-0.0156747
-0.126253
-0.0169454
-0.123436
-0.0183014
-0.120403
-0.0197279
-0.117131
-0.021247
-0.113602
-0.022843
-0.109829
-0.0244913
-0.105788
-0.0262188
-0.101471
-0.0280093
-0.0968698
-0.0298571
-0.0919707
-0.031756
-0.0867708
-0.0336841
-0.0812585
-0.0356387
-0.0754271
-0.0376043
-0.0693082
-0.0395072
-0.0628988
-0.0413861
-0.0562017
-0.0432085
-0.0492142
-0.0449722
-0.0419632
-0.0466177
-0.0344691
-0.0481403
-0.0267198
-0.0495566
-0.0187901
-0.0507469
-0.010698
-0.0517639
-0.00250157
-0.0525485
0.00579103
-0.0531536
0.0141365
-0.0535264
0.022488
-0.0536492
0.0308267
-0.0535495
0.0390773
-0.053145
0.047211
-0.0524948
0.0552254
-0.0516363
0.0630353
-0.0504739
0.0706511
-0.0491368
0.0780587
-0.0476056
0.0851344
-0.0457621
0.0919075
-0.0438331
0.0983606
-0.0417808
0.10448
-0.0396449
0.110261
-0.0374528
0.115678
-0.035217
0.12074
-0.0329889
0.125479
-0.0308236
0.129861
-0.0286612
0.133928
-0.0265968
0.137672
-0.0245909
0.141093
-0.0226633
0.144219
-0.0208516
0.147072
-0.0191508
0.149677
-0.0175705
0.152049
-0.0160956
0.154208
-0.0147321
0.156174
-0.0134776
0.157966
-0.012326
0.159597
-0.0112673
0.161087
-0.0103066
-0.00941999
-0.144969
0.146983
-0.0143343
-0.142782
-0.01555
-0.140422
-0.0168365
-0.137855
-0.0182413
-0.13508
-0.0197203
-0.132062
-0.02132
-0.128797
-0.0229925
-0.125318
-0.024726
-0.121583
-0.0265786
-0.117503
-0.0285707
-0.113181
-0.0305413
-0.108565
-0.0326249
-0.103609
-0.0348131
-0.0983884
-0.0369769
-0.0928204
-0.0392521
-0.086998
-0.0414611
-0.08086
-0.0437422
-0.0743745
-0.0459927
-0.0675254
-0.0482353
-0.0604119
-0.050322
-0.0529967
-0.0523874
-0.0453659
-0.0542485
-0.0374823
-0.0560239
-0.0292815
-0.0577574
-0.020906
-0.0591224
-0.0123823
-0.0602876
-0.00378373
-0.0611471
0.00496389
-0.0619012
0.0138014
-0.062364
0.0225773
-0.0624251
0.0313899
-0.0623621
0.0401137
-0.0618688
0.0486599
-0.061041
0.0571531
-0.0601294
0.0654536
-0.0587744
0.0735317
-0.0572149
0.0812822
-0.0553561
0.0886857
-0.0531656
0.0959064
-0.0510539
0.10274
-0.0486139
0.10922
-0.0461259
0.115384
-0.0436161
0.121146
-0.0409799
0.12654
-0.0383821
0.131561
-0.0358455
0.136194
-0.0332936
0.140453
-0.0308555
0.144336
-0.0284739
0.147963
-0.0262903
0.151276
-0.0241656
0.154277
-0.0221511
0.15699
-0.0202836
0.159437
-0.0185423
0.161677
-0.0169722
0.163708
-0.0155089
0.16554
-0.0141576
0.167198
-0.0129255
0.16864
-0.0117488
-0.01078
-0.0510875
0.0115297
-0.0616302
0.0105427
-0.0711859
0.00955538
-0.0795498
0.00836413
-0.0867607
0.0072107
-0.0932235
0.00646298
-0.0992683
0.00604483
-0.105026
0.00575765
-0.110518
0.00549202
-0.115387
0.00486981
-0.119008
0.00362048
-0.121049
0.0020407
-0.121637
0.000588512
-0.121235
-0.000401958
-0.120394
-0.000841331
-0.119258
-0.00113571
-0.117587
-0.00167112
-0.115232
-0.00235512
-0.112317
-0.00291459
-0.108997
-0.00332023
-0.105346
-0.00365109
-0.101397
-0.00394898
-0.0971707
-0.00422637
-0.0927307
-0.00443996
-0.00486608
-0.0555115
0.021169
-0.0651118
0.0201428
-0.0742265
0.01867
-0.0828325
0.01697
-0.0909421
0.0153202
-0.0984694
0.0139901
-0.105335
0.01291
-0.111456
0.0118787
-0.11663
0.0106666
-0.120712
0.00895149
-0.123796
0.00670455
-0.125958
0.00420269
-0.127161
0.00179148
-0.127326
-0.000236364
-0.126448
-0.00171939
-0.124723
-0.00286129
-0.122431
-0.00396239
-0.119713
-0.00507374
-0.116547
-0.00608027
-0.112909
-0.00695808
-0.108819
-0.00774172
-0.104283
-0.00848458
-0.0992886
-0.00922075
-0.093734
-0.00999447
-0.0109105
-0.0608688
0.0318807
-0.0711726
0.0304464
-0.0810277
0.0285249
-0.0903979
0.02634
-0.0991821
0.0241043
-0.10719
0.021998
-0.114266
0.0199857
-0.120307
0.0179197
-0.125249
0.0156089
-0.129177
0.0128799
-0.132222
0.0097493
-0.134452
0.00643256
-0.135877
0.0032162
-0.136439
0.000326147
-0.136045
-0.00211388
-0.134712
-0.00419426
-0.132601
-0.00607358
-0.129851
-0.00782364
-0.126514
-0.00941711
-0.122613
-0.0108591
-0.11818
-0.0121746
-0.113252
-0.013413
-0.10787
-0.0146024
-0.102076
-0.0157879
-0.0170517
-0.066025
0.0437582
-0.0772255
0.0416468
-0.0878331
0.0391325
-0.0978349
0.0363417
-0.107133
0.0334018
-0.115561
0.0304263
-0.122972
0.027397
-0.129281
0.0242282
-0.13447
0.0207978
-0.13862
0.0170305
-0.141846
0.0129756
-0.144217
0.00880256
-0.14573
0.00472971
-0.146354
0.000949625
-0.146024
-0.00244349
-0.144755
-0.00546291
-0.142632
-0.00819683
-0.139757
-0.010699
-0.136183
-0.0129907
-0.131961
-0.0150809
-0.127122
-0.0170139
-0.121709
-0.0188258
-0.11576
-0.0205519
-0.109328
-0.0222197
-0.0238224
-0.0712261
0.0566172
-0.0833698
0.0537903
-0.0947965
0.0505591
-0.105483
0.0470276
-0.115332
0.0432512
-0.124222
0.0393168
-0.132037
0.0352119
-0.138716
0.0309073
-0.144258
0.0263391
-0.148721
0.0214937
-0.152192
0.0164461
-0.154727
0.0113376
-0.156329
0.00633207
-0.156982
0.00160256
-0.156671
-0.00275447
-0.155398
-0.00673602
-0.15322
-0.0103749
-0.150219
-0.0136995
-0.14646
-0.0167495
-0.142
-0.0195412
-0.136894
-0.02212
-0.131201
-0.0245184
-0.124991
-0.0267616
-0.118346
-0.028865
-0.0308523
-0.0766046
0.0702609
-0.0896602
0.0668459
-0.101902
0.0628007
-0.113292
0.0584172
-0.123735
0.0536943
-0.133146
0.048728
-0.141423
0.0434886
-0.148529
0.0380137
-0.154465
0.032275
-0.159266
0.0262943
-0.163
0.0201807
-0.165706
0.0140427
-0.167396
0.0080227
-0.168075
0.00228099
-0.167731
-0.00309818
-0.166396
-0.00807072
-0.164123
-0.0126483
-0.160965
-0.0168577
-0.156996
-0.0207181
-0.152272
-0.024265
-0.146859
-0.0275336
-0.14081
-0.0305673
-0.134181
-0.0333902
-0.12703
-0.0360167
-0.0384427
-0.0820326
0.0850351
-0.0961003
0.0809136
-0.109181
0.0758817
-0.121304
0.07054
-0.132384
0.0647738
-0.142366
0.0587105
-0.151139
0.0522609
-0.1587
0.0455747
-0.165036
0.0386116
-0.170176
0.0314346
-0.174176
0.02418
-0.177068
0.0169353
-0.178854
0.00980883
-0.179546
0.00297285
-0.179177
-0.00346737
-0.177772
-0.00947624
-0.175379
-0.0150411
-0.172063
-0.020174
-0.167886
-0.024895
-0.162927
-0.0292234
-0.157245
-0.0332163
-0.150907
-0.0369049
-0.143956
-0.0403414
-0.136459
-0.0435133
-0.0464165
-0.0876963
0.101188
-0.102795
0.0960127
-0.116676
0.0897627
-0.129542
0.0834061
-0.141285
0.0765162
-0.151876
0.0693017
-0.161164
0.0615488
-0.169185
0.0535959
-0.17594
0.0453663
-0.181414
0.0369086
-0.185663
0.0284296
-0.188752
0.0200237
-0.19063
0.011687
-0.19134
0.00368316
-0.190932
-0.00387532
-0.189435
-0.0109733
-0.18691
-0.0175664
-0.183416
-0.0236685
-0.179019
-0.0292919
-0.173804
-0.0344381
-0.167834
-0.0391865
-0.161189
-0.0435499
-0.153873
-0.0476567
-0.145944
-0.0514427
-0.0549138
-0.0939453
0.118592
-0.109806
0.111873
-0.124352
0.104309
-0.137975
0.097029
-0.150418
0.0889589
-0.161685
0.0805689
-0.171487
0.071351
-0.179967
0.0620759
-0.187148
0.0525473
-0.192982
0.0427426
-0.197447
0.0328948
-0.200716
0.0232927
-0.202712
0.0136823
-0.203414
0.00438554
-0.202959
-0.00433088
-0.201363
-0.0125689
-0.198681
-0.0202485
-0.195015
-0.0273339
-0.190371
-0.0339368
-0.184825
-0.0399838
-0.178532
-0.0454791
-0.17153
-0.0505528
-0.163798
-0.0553886
-0.155634
-0.0596066
-0.0635644
0.992052
4.2424
-0.332788
-3.9096
3.31037
-1.34894
-1.96143
0.2601
-0.35919
0.0990898
0.322326
-0.390878
0.0685525
-0.944929
-0.521063
1.46599
-0.590299
0.830131
-0.239832
3.19385
-4.40894
1.2151
-0.044459
-0.173824
0.218283
5.45475
-3.71907
-1.73568
-0.944469
2.12805
-1.18358
-1.20266
0.355409
0.847254
1.40695
-2.35514
0.948191
-1.70458
0.601007
1.10357
0.105748
-0.104699
-0.00104874
5.68352
-5.59184
-0.0916842
0.920619
2.38976
0.122506
-0.0215765
-0.10093
-0.239341
-0.236687
0.444618
0.323322
-0.76794
-0.326446
0.199374
0.127071
3.23282
2.34963
-5.58245
-1.22464
1.272
-0.0473653
1.50772
-1.3312
-0.176518
-1.14665
0.536455
0.610195
1.40457
0.103154
-1.28206
0.842563
0.439493
-0.348072
0.0331215
0.314951
5.73355
-3.04943
-2.68412
-0.0341836
-0.128908
0.163091
-0.0636793
0.68097
-0.617291
-2.41402
1.34064
1.07338
1.20828
0.923893
-2.13217
3.34691
-5.84229
2.49537
-0.284684
-0.0663071
0.350991
-0.347206
2.41014
-2.06294
-1.05527