/*--------------------------------*- C++ -*----------------------------------*\
  =========                 |
  \\      /  F ield         | OpenFOAM: The Open Source CFD Toolbox
   \\    /   O peration     | Website:  https://openfoam.org
    \\  /    A nd           | Version:  10
     \\/     M anipulation  |
\*---------------------------------------------------------------------------*/
FoamFile
{
    format      ascii;
    class       volVectorField;
    location    "1800";
    object      U;
}
// * * * * * * * * * * * * * * * * * * * * * * * * * * * * * * * * * * * * * //

dimensions      [0 1 -1 0 0 0 0];

internalField   nonuniform List<vector> 
10435
(
(3.14377 1.49985 8.34676e-22)
(3.30977 2.16252 -5.19783e-20)
(4.45792 -0.378134 -3.10278e-20)
(4.22331 1.02122 9.74223e-20)
(3.81017 0.624727 -3.63726e-20)
(3.15006 -0.163812 2.38952e-19)
(4.68595 -0.349496 -1.09053e-19)
(5.15435 -0.326914 7.61431e-20)
(4.95449 -0.333492 2.65714e-19)
(3.53609 -0.361565 -6.5852e-20)
(3.52421 1.81187 -1.04195e-19)
(4.82961 0.130572 1.91163e-19)
(3.40494 -0.395709 6.96274e-20)
(1.26047 1.11834 -2.79497e-20)
(1.49725 1.26945 -3.08103e-20)
(5.04358 -0.362495 -8.05738e-21)
(1.05037 0.956348 8.88683e-21)
(2.96741 -0.345754 2.35468e-19)
(4.70468 -0.338539 -1.07552e-19)
(3.38533 1.41398 -1.57846e-20)
(5.11211 -0.343948 5.2224e-20)
(4.19181 0.80733 -1.48629e-19)
(4.89489 -0.364314 3.44208e-19)
(4.89432 -0.396107 -1.24667e-19)
(3.96324 -0.326466 7.83779e-20)
(0.294423 0.488486 -1.04943e-21)
(0.0319867 0.219918 -2.51531e-21)
(3.97012 -0.369078 5.87181e-20)
(0.173656 0.0638637 4.6967e-22)
(3.19978 -0.359344 3.47602e-19)
(4.66281 -0.301599 1.50411e-19)
(3.59582 1.59944 -6.95875e-21)
(5.15195 -0.321406 -1.62912e-19)
(0.425202 0.0923823 5.24161e-21)
(5.15742 -0.393522 8.72503e-20)
(2.86611 2.42958 2.2267e-20)
(5.14986 -0.38027 1.25831e-19)
(0.163014 0.431565 8.81171e-21)
(0.455072 0.456539 -8.11757e-22)
(4.80633 -0.382079 3.3504e-20)
(2.96409 -0.348628 -3.51454e-19)
(4.68899 -0.349541 -8.81401e-20)
(0.868642 1.10427 -3.95554e-20)
(3.8714 1.38579 -1.46235e-19)
(5.05351 -0.355354 -2.6208e-19)
(4.8703 -0.413506 1.97322e-19)
(3.06702 -0.258489 -2.64078e-19)
(0.559846 0.809951 -1.16372e-19)
(4.9046 -0.317975 8.71917e-20)
(4.08293 0.554227 -5.00076e-20)
(5.15318 -0.351035 -1.19574e-20)
(4.08088 -0.138185 1.17329e-18)
(0.505132 0.486199 -2.66396e-21)
(0.257635 -0.055537 5.39084e-22)
(0.405665 0.464634 4.55347e-22)
(0.121522 0.0174779 -1.32748e-21)
(5.14312 -0.379716 -3.79395e-19)
(0.158308 0.358829 5.39651e-21)
(0.717812 0.492026 -6.21187e-21)
(5.08878 -0.400519 2.5543e-19)
(0.455898 0.499914 1.81015e-21)
(3.17179 2.2881 4.55737e-20)
(0.157428 0.253174 -4.57719e-21)
(4.13578 0.0100109 -9.95262e-20)
(4.97139 -0.358248 -4.84718e-19)
(4.29619 -0.377483 2.2629e-19)
(0.607315 0.323146 1.2596e-20)
(0.357487 0.468264 1.95868e-20)
(5.12347 -0.325201 -9.49204e-20)
(4.83419 -0.34766 9.8066e-21)
(0.207592 -0.0875046 -2.07622e-21)
(0.22061 0.491588 8.16347e-22)
(1.05762 1.31767 1.41237e-19)
(4.51018 -0.367755 -2.96989e-19)
(1.76635 1.41695 -1.24265e-20)
(1.21906 1.53186 1.26211e-20)
(4.78271 -0.282551 5.40842e-19)
(4.79707 -0.338543 2.75169e-19)
(5.11711 -0.299022 2.27632e-20)
(1.72888 1.17902 7.68607e-20)
(4.40952 0.171568 6.31892e-20)
(2.77713 1.30041 -1.12456e-22)
(0.554144 0.518249 3.63557e-21)
(0.29985 -0.0297688 -4.25735e-22)
(4.54232 0.00799212 -1.22383e-19)
(2.77213 2.24878 5.68513e-20)
(3.02202 2.02271 6.70692e-22)
(3.82623 1.61622 2.99716e-20)
(2.24938 1.92618 -8.10307e-21)
(3.25236 1.97563 9.06459e-21)
(3.98657 1.44195 -2.56143e-20)
(4.13399 1.2411 -2.53061e-20)
(3.02905 1.24673 4.12669e-21)
(2.5028 1.99699 3.34252e-20)
(3.46001 1.88729 1.37452e-20)
(2.68865 2.43357 3.15886e-20)
(4.30217 1.00282 3.05177e-19)
(1.81151 1.62997 1.88836e-20)
(0.876249 0.652656 -1.09065e-20)
(4.30105 0.813731 -2.6627e-19)
(2.02401 1.78664 3.56526e-20)
(3.22839 0.508822 -1.44122e-19)
(2.76649 2.02992 -1.81805e-20)
(3.65145 1.76472 -1.44855e-20)
(3.20209 0.29378 -7.53295e-21)
(4.0553 1.21704 7.57629e-21)
(3.2685 1.15259 5.44374e-21)
(4.2564 0.351682 7.21451e-20)
(4.66674 -0.119639 -1.53026e-19)
(1.98211 1.25616 -2.06538e-20)
(3.90347 0.725059 -1.96737e-20)
(3.26623 0.725296 -7.94822e-20)
(2.5129 1.3142 -2.31344e-20)
(2.24668 1.30221 -1.73125e-20)
(4.14071 1.03824 -1.62831e-19)
(4.01461 0.991104 4.00527e-20)
(4.42869 0.588619 -1.40881e-19)
(2.98906 2.24135 -1.57746e-20)
(3.6747 1.81897 -1.64191e-19)
(4.57937 0.525802 -3.93801e-20)
(4.55587 0.397641 -4.32035e-19)
(1.3474 1.72495 1.36936e-20)
(3.18254 2.19039 3.58064e-20)
(2.15987 2.40135 -1.28921e-19)
(3.26021 1.50518 2.90748e-20)
(0.383305 0.502347 9.9432e-22)
(4.45719 0.744046 2.77122e-19)
(1.62843 1.99199 -2.82243e-20)
(4.17541 0.598408 -2.66328e-19)
(0.0870502 0.416568 -7.35487e-22)
(1.91476 2.22636 5.44574e-20)
(3.23279 1.73509 -1.72199e-19)
(5.12918 -0.3634 -1.3427e-19)
(1.48617 1.07139 5.83047e-20)
(0.184327 0.464603 1.43621e-22)
(0.73515 0.673451 3.74515e-22)
(2.53066 2.57113 4.29156e-20)
(4.38138 0.801854 -1.82432e-20)
(3.52533 1.97356 4.28337e-20)
(3.81824 1.1529 3.51086e-20)
(3.60835 1.29695 4.66815e-21)
(4.84985 -0.338373 -5.39848e-19)
(0.519227 0.21474 3.47079e-20)
(4.62491 -0.0356561 1.20707e-18)
(4.35505 0.609293 2.4528e-20)
(1.63255 1.73834 1.16741e-19)
(2.36452 2.52385 -1.66847e-20)
(3.76416 -0.0409758 -3.35884e-19)
(1.0686 1.14341 4.93189e-20)
(4.8577 -0.0575579 7.43878e-20)
(0.478684 0.727688 -2.04052e-22)
(5.0994 -0.333921 2.33852e-19)
(3.23142 1.73853 2.21218e-21)
(4.82186 -0.135293 5.16381e-19)
(3.76272 -0.213205 -2.94482e-19)
(0.400495 0.617203 3.29208e-21)
(3.26601 1.2412 2.37139e-19)
(3.36014 2.0986 -2.50103e-21)
(3.5816 -0.283837 -2.36505e-19)
(3.12657 2.16825 -2.29051e-20)
(4.94216 -0.250879 -9.6428e-20)
(1.26859 0.944708 -1.18695e-20)
(3.93146 1.40715 1.89551e-19)
(4.76972 0.099484 1.3816e-19)
(2.03595 1.51009 3.63397e-20)
(4.38384 0.363828 9.73384e-19)
(5.13803 -0.344815 -2.50057e-19)
(4.65328 0.389408 -1.28618e-19)
(4.95106 -0.182955 1.90246e-19)
(4.41934 0.115397 -1.69759e-18)
(4.04317 -0.282638 2.72365e-19)
(0.903668 1.10559 -4.22009e-20)
(0.00581736 0.133782 1.1444e-21)
(1.84809 1.84367 -2.78967e-21)
(4.98704 -0.13691 -2.79257e-19)
(3.03638 2.33179 -2.78902e-20)
(3.0259 2.37815 -2.46474e-20)
(0.688354 0.817679 1.64788e-20)
(3.7072 0.884515 1.18147e-20)
(0.234364 0.116995 -6.78647e-22)
(3.42994 2.00155 6.383e-20)
(3.20396 -0.0356603 -4.15703e-20)
(4.83664 0.0508718 -6.64281e-19)
(0.439803 0.525759 7.41163e-22)
(4.93213 -0.309211 7.58053e-20)
(0.763616 1.01369 5.56257e-20)
(1.11491 1.4127 -1.32201e-19)
(4.9208 -0.342151 -2.18714e-19)
(3.74427 0.445074 9.91559e-20)
(4.41842 -0.0975093 -7.92751e-19)
(4.70496 0.261512 1.03559e-19)
(0.600246 0.554745 3.71225e-21)
(0.124502 0.448592 1.33756e-21)
(2.67598 2.57798 -1.46699e-20)
(3.26716 0.981203 1.09376e-19)
(5.05221 -0.334224 1.35009e-20)
(1.1081 1.32275 1.32819e-19)
(2.53223 2.21006 -2.5118e-20)
(0.631972 0.845462 1.19601e-19)
(5.11209 -0.375082 1.90951e-19)
(2.14633 1.72464 -4.24267e-20)
(0.245377 0.506839 8.49458e-21)
(3.71481 -0.375539 -1.67968e-20)
(0.218983 0.454757 8.65786e-21)
(4.07723 -0.372276 -6.57385e-20)
(3.96218 1.0608 -1.51217e-21)
(3.79889 1.63559 1.84831e-19)
(4.52833 0.583532 -9.03648e-20)
(0.22234 0.238643 -4.75831e-21)
(4.50652 0.414467 -6.52828e-20)
(0.568697 0.771379 -1.88274e-20)
(4.74241 -0.35271 -4.43991e-19)
(4.64198 0.171615 9.67684e-19)
(4.88155 0.00464506 7.05669e-20)
(0.0588874 0.202149 1.56811e-21)
(1.29768 1.32583 -1.3164e-19)
(2.32443 1.53999 1.04285e-20)
(0.575374 0.643828 -2.89882e-21)
(0.278905 0.466243 8.90321e-22)
(1.07084 0.802155 1.18256e-20)
(0.278646 0.0743538 -4.73349e-22)
(0.734377 0.751974 3.48451e-20)
(0.431843 0.268238 -1.9925e-20)
(1.97715 2.08729 -1.92713e-19)
(0.325706 0.541557 5.8677e-22)
(5.16198 -0.378843 -6.20708e-20)
(0.347931 0.458511 -2.04556e-21)
(2.26899 2.11769 2.15484e-20)
(4.48195 -0.21864 8.61047e-19)
(1.49105 1.79039 -1.21426e-19)
(0.54058 0.604706 -1.17488e-19)
(5.16294 -0.363506 2.74673e-19)
(0.316877 0.464416 -2.81569e-21)
(5.09202 -0.317904 2.78823e-19)
(0.0598107 0.345903 6.14722e-21)
(0.855908 0.804769 -6.01223e-20)
(5.07875 -0.375305 -3.54061e-19)
(0.28329 0.509758 -1.307e-21)
(5.02782 -0.331972 -2.27305e-20)
(4.40013 -0.290981 5.20067e-21)
(3.67489 1.5313 4.56632e-20)
(0.389316 0.550784 3.05197e-22)
(0.626255 0.717618 4.26658e-22)
(0.168829 -0.00948504 -1.35497e-22)
(3.94006 1.26191 -3.44e-19)
(5.07349 -0.319976 8.81493e-20)
(2.48459 2.38767 -1.08698e-19)
(5.07597 -0.305083 7.62203e-20)
(0.0291604 0.0183413 2.43269e-22)
(2.92311 2.45135 1.98138e-20)
(0.086046 -0.0447356 -6.01693e-22)
(2.42752 1.76458 -3.13991e-20)
(3.4082 -0.370856 -1.21188e-19)
(4.6433 0.237557 -1.22554e-19)
(4.97558 -0.317535 -1.86132e-19)
(4.10158 0.265216 3.95995e-19)
(0.0438608 -0.0163112 -6.03699e-22)
(4.87862 -0.315529 2.61699e-19)
(0.504817 0.677666 1.4061e-21)
(0.356527 0.59282 -3.12284e-20)
(4.76103 -0.328622 1.30113e-20)
(4.18033 -0.247468 2.38973e-21)
(0.347189 0.516887 3.26682e-22)
(4.81923 -0.166938 -2.91128e-19)
(2.60207 1.55641 7.88422e-21)
(0.633901 0.563305 6.59605e-20)
(3.46246 1.6511 7.6879e-21)
(4.7351 -0.353388 2.77722e-19)
(0.540039 0.567216 -9.65327e-22)
(4.0669 0.850601 5.39808e-20)
(4.65224 -0.347778 -1.60566e-22)
(5.13133 -0.276801 -3.9514e-20)
(5.04697 -0.29312 -2.78363e-20)
(4.04388 -0.352684 -2.87777e-19)
(0.235728 0.473355 -7.79519e-22)
(4.67466 0.359922 -1.83133e-19)
(0.128198 0.419112 -5.42462e-21)
(3.70917 0.899917 4.07386e-20)
(5.02764 -0.358673 7.43844e-20)
(5.14083 -0.268043 1.58593e-20)
(3.64308 -0.379497 1.43447e-19)
(0.877472 1.06503 -1.81442e-19)
(4.50171 -0.352779 -7.63992e-21)
(2.053 1.98661 -1.51126e-20)
(2.70016 1.7919 -1.31678e-20)
(0.639405 0.648557 -1.42456e-21)
(3.75496 0.248176 6.06888e-20)
(0.384987 0.443089 -8.2428e-22)
(0.346242 -0.00387391 -2.29679e-21)
(0.347416 0.0953203 1.29431e-21)
(2.23029 2.27255 1.59852e-19)
(3.19325 1.96629 1.89924e-19)
(0.286745 0.197103 2.59096e-21)
(5.10106 -0.278055 7.55936e-20)
(0.436548 0.423564 -1.19126e-22)
(0.161004 -0.0879423 -1.21197e-22)
(1.38064 1.55598 -3.48271e-21)
(2.88068 1.5468 3.58102e-21)
(3.66055 1.15386 -5.49538e-21)
(4.42012 -0.343789 1.77964e-19)
(0.473753 0.636567 1.80657e-19)
(4.97025 -0.282791 -1.0071e-19)
(4.3278 -0.349115 -2.64871e-21)
(0.0155155 0.0534559 1.45856e-22)
(3.62927 1.39217 -8.95649e-20)
(1.5409 1.49324 7.15139e-20)
(0.873139 0.959549 6.68878e-20)
(5.06644 -0.283298 -2.15643e-20)
(4.36758 -0.355558 -2.40703e-21)
(0.39146 0.0152596 8.81665e-22)
(3.49155 1.03216 1.04099e-20)
(0.261696 0.522051 4.28836e-21)
(2.80733 2.53381 -7.1735e-21)
(3.72331 0.102226 -1.77356e-19)
(5.06296 -0.36245 -4.61785e-20)
(0.124364 -0.0671699 2.89752e-23)
(0.465908 0.566032 -1.43068e-21)
(4.70509 -0.187977 -9.69787e-19)
(0.430174 0.440179 1.70135e-21)
(4.75375 0.240424 1.52166e-19)
(3.15028 0.118284 -6.34997e-20)
(0.130111 0.175562 3.5458e-21)
(2.97554 1.78539 -2.34776e-21)
(0.647587 0.595922 1.74171e-21)
(5.13178 -0.263594 -9.73885e-21)
(3.79849 -0.370197 -6.25239e-20)
(0.20223 0.477925 -9.082e-23)
(4.15331 -0.353174 -3.38373e-22)
(0.512342 0.397968 -9.5072e-22)
(0.104018 0.34921 -7.48856e-21)
(5.01935 -0.390013 1.97105e-21)
(0.437687 0.15048 -2.86229e-21)
(0.431207 0.0308394 1.20754e-21)
(4.49471 -0.36435 9.56799e-21)
(4.99615 -0.204336 2.40853e-19)
(0.21903 0.35193 -1.50829e-20)
(0.120081 -0.0483989 1.68524e-22)
(0.0420096 0.0012967 2.36017e-23)
(0.484335 0.0733723 7.60945e-22)
(0.0310363 0.104932 2.63674e-22)
(0.175144 0.470914 3.09188e-22)
(0.294274 0.542861 3.63868e-21)
(0.500921 0.52744 -3.1572e-22)
(0.00526127 0.137452 -4.08366e-22)
(0.00835743 0.0941342 -9.51474e-24)
(0.374191 0.618023 -4.19836e-21)
(0.279794 0.338527 4.33677e-21)
(0.00697984 0.301308 -4.58716e-23)
(0.6892 0.633277 -2.91271e-21)
(5.09778 -0.288206 -5.77815e-20)
(0.462354 0.0487323 2.7513e-21)
(4.00078 -0.376823 7.38461e-21)
(0.0101992 0.185861 4.41952e-23)
(3.95328 -0.363096 -1.40919e-21)
(5.10348 -0.265048 2.57393e-20)
(4.8477 -0.285914 -2.14614e-20)
(3.33279 -0.424918 -3.08831e-21)
(4.66084 -0.373837 -1.90382e-19)
(0.213196 -0.0328777 1.53072e-21)
(0.366246 0.044527 -4.92073e-21)
(0.0793735 -0.0199125 -4.00542e-22)
(0.332832 0.48054 2.94425e-21)
(0.0547948 0.0738279 -9.78698e-24)
(0.592063 0.606882 1.48432e-21)
(0.0807404 0.164979 -1.52383e-21)
(0.149098 0.456944 2.01185e-22)
(0.292532 0.47408 -4.35097e-20)
(4.94631 -0.0711937 -2.10613e-20)
(0.157966 0.466603 -2.9326e-21)
(5.02903 -0.302062 6.45972e-20)
(0.363244 0.470101 -6.54474e-22)
(0.12194 0.436547 -2.68452e-22)
(3.14239 -0.469804 -2.83382e-20)
(4.69804 -0.300271 -6.95709e-20)
(0.685737 0.705428 1.31115e-20)
(0.0057824 0.23813 -2.47228e-22)
(0.109437 0.263456 1.50557e-21)
(0.0207929 0.268838 6.81629e-23)
(0.311907 0.0259976 1.42263e-21)
(0.248193 0.489026 -3.5586e-22)
(0.000367709 0.286348 4.49737e-22)
(0.41173 0.483175 -8.53719e-22)
(5.14357 -0.291806 -1.67123e-20)
(0.346323 0.307101 -7.3248e-21)
(5.12914 -0.302017 8.95949e-21)
(5.04512 -0.265622 8.88504e-20)
(3.73343 -0.375983 -5.31981e-22)
(3.51427 -0.399455 5.77164e-20)
(4.96887 -0.276158 -3.95852e-20)
(4.15913 -0.354143 -1.9533e-20)
(5.12459 -0.380661 -5.75455e-20)
(1.77674 2.02742 5.69221e-21)
(0.725688 0.912588 -2.43948e-20)
(0.216774 0.0278856 1.94097e-21)
(0.159848 -0.063771 -1.39758e-21)
(4.32286 -0.352902 2.83314e-20)
(0.258225 -0.00444397 -4.30506e-21)
(3.1619 -0.417999 -1.37335e-19)
(0.00794695 0.312737 1.19933e-22)
(0.177549 0.152231 -4.59469e-22)
(0.0899774 0.404939 -9.60291e-23)
(0.360115 0.176133 -1.81365e-21)
(0.496497 0.618915 3.36576e-21)
(4.85985 -0.350102 4.03037e-19)
(0.0720011 0.277368 -4.21669e-22)
(5.15115 -0.296175 3.80149e-21)
(5.01932 -0.24093 -1.13341e-19)
(0.688122 0.809666 -1.91304e-21)
(0.210102 0.481626 3.36726e-22)
(0.0463854 0.346264 7.67567e-23)
(4.70441 -0.312093 9.2621e-20)
(0.0699497 0.379208 5.48528e-22)
(0.182238 0.473843 1.66362e-22)
(0.40721 0.58535 -4.17224e-21)
(0.0871763 0.0472754 2.83976e-22)
(0.401074 0.620928 1.67604e-20)
(0.101389 0.121449 2.05527e-22)
(4.25466 -0.362297 1.58958e-19)
(0.14855 -0.0908886 4.21383e-23)
(0.23497 0.490635 1.12991e-21)
(0.133759 0.0993609 -8.04489e-22)
(0.528741 0.136411 -1.6917e-20)
(2.89524 -0.367304 -1.11277e-19)
(0.813708 0.864985 1.92597e-20)
(0.761461 0.728828 -3.69242e-20)
(4.48878 -0.289455 -1.4094e-19)
(0.415959 0.0551371 -1.29125e-21)
(0.413559 -0.364438 1.51443e-21)
(0.435341 -0.347816 1.90848e-23)
(0.486139 -0.349209 -1.14119e-21)
(0.522297 -0.350039 5.94455e-22)
(0.562029 -0.351948 -7.26008e-22)
(0.594151 -0.353003 -2.27955e-21)
(0.625359 -0.353908 5.68375e-22)
(0.651615 -0.354733 7.14911e-22)
(0.676564 -0.354154 7.85831e-22)
(0.446716 -0.351308 -1.14607e-21)
(0.467985 -0.341801 -1.64478e-22)
(0.516184 -0.341825 1.02072e-21)
(0.552689 -0.343541 -2.15936e-21)
(0.590315 -0.345193 1.80421e-21)
(0.621828 -0.346686 3.26006e-21)
(0.651219 -0.347708 -2.05908e-21)
(0.676289 -0.348448 2.39643e-21)
(0.698124 -0.348112 -1.11859e-21)
(0.48124 -0.334997 3.15851e-21)
(0.499686 -0.32942 1.03764e-21)
(0.545988 -0.32969 -2.42603e-21)
(0.581942 -0.332356 1.24154e-21)
(0.617844 -0.334235 -3.44925e-21)
(0.648395 -0.336114 -6.01277e-22)
(0.676219 -0.337417 4.27046e-24)
(0.699884 -0.338336 -1.14442e-21)
(0.720142 -0.338389 -2.18625e-21)
(0.512851 -0.317072 -1.69686e-21)
(0.52936 -0.312828 1.35355e-21)
(0.574349 -0.313578 2.06806e-21)
(0.609822 -0.317024 6.84632e-23)
(0.644318 -0.319254 1.55363e-21)
(0.673932 -0.321472 5.13213e-21)
(0.700442 -0.322999 -3.17909e-21)
(0.722967 -0.324039 5.75337e-22)
(0.742258 -0.324158 1.37104e-21)
(0.542006 -0.296727 5.48704e-23)
(0.557184 -0.292728 -5.1073e-22)
(0.600974 -0.293932 2.10394e-22)
(0.636054 -0.297729 -1.25637e-21)
(0.669462 -0.300265 5.41333e-22)
(0.6983 -0.302693 -1.14855e-21)
(0.723853 -0.304352 6.26133e-22)
(0.745641 -0.305437 2.4948e-21)
(0.764545 -0.305316 6.30628e-22)
(0.568671 -0.273581 3.14195e-22)
(0.582974 -0.269341 -3.11608e-21)
(0.625624 -0.270965 2.13309e-22)
(0.660462 -0.274651 3.00899e-21)
(0.693076 -0.277324 -9.98446e-22)
(0.721363 -0.279783 -1.48077e-21)
(0.746295 -0.281462 -4.74038e-22)
(0.76769 -0.282518 -4.50901e-21)
(0.786315 -0.282542 2.64731e-21)
(0.591904 -0.248647 3.48383e-22)
(0.606549 -0.243129 2.28713e-21)
(0.648216 -0.244938 4.08682e-22)
(0.682983 -0.24795 -1.50792e-21)
(0.71505 -0.25048 3.28654e-22)
(0.74302 -0.25272 -7.63057e-22)
(0.767647 -0.254209 1.21393e-21)
(0.788933 -0.255021 -1.18592e-21)
(0.807567 -0.254841 -8.05951e-22)
(0.610724 -0.222222 -1.0687e-21)
(0.628344 -0.214259 2.07445e-21)
(0.668997 -0.215806 -4.77947e-22)
(0.703659 -0.217652 9.64825e-22)
(0.735305 -0.219752 -7.28434e-22)
(0.763156 -0.221519 2.18396e-21)
(0.787769 -0.222595 3.08454e-21)
(0.809241 -0.223036 -4.27042e-21)
(0.828298 -0.221971 1.29634e-21)
(0.625975 -0.191298 -2.76747e-22)
(0.64901 -0.181679 4.33222e-22)
(0.688136 -0.182852 2.85544e-22)
(0.722396 -0.18358 -1.04175e-21)
(0.753677 -0.185124 -2.91174e-22)
(0.78159 -0.186211 -9.42314e-22)
(0.806442 -0.186628 -5.30721e-22)
(0.828394 -0.186323 4.31838e-21)
(0.847885 -0.185002 -4.92013e-22)
(0.639721 -0.153586 5.4003e-22)
(0.667971 -0.144358 -1.62491e-21)
(0.704902 -0.145621 -9.0865e-22)
(0.738666 -0.145796 2.54095e-22)
(0.769814 -0.146784 -3.30756e-22)
(0.798066 -0.147002 1.46574e-21)
(0.823456 -0.146442 2.1145e-22)
(0.846106 -0.145017 2.91179e-21)
(0.8663 -0.142362 -1.29891e-22)
(0.653549 -0.111358 -5.40018e-22)
(0.683611 -0.103855 -1.44724e-22)
(0.718032 -0.105375 6.24567e-22)
(0.751786 -0.105207 1.01874e-21)
(0.783329 -0.10539 -3.0683e-22)
(0.812332 -0.104433 -3.45217e-22)
(0.838636 -0.102547 -9.05957e-22)
(0.862372 -0.0996117 -3.32823e-21)
(0.883652 -0.0954724 -5.06616e-22)
(0.666399 -0.069067 9.77887e-22)
(0.694238 -0.0638839 1.53255e-21)
(0.727202 -0.0644707 -1.20033e-21)
(0.76165 -0.063267 6.41219e-22)
(0.794125 -0.0619027 -1.17234e-22)
(0.824212 -0.0592548 2.00362e-21)
(0.851647 -0.0556364 1.93484e-22)
(0.876551 -0.0509119 -1.64693e-21)
(0.899136 -0.0460088 -1.19908e-21)
(0.674697 -0.029658 2.37576e-22)
(0.700493 -0.0258567 -3.23735e-22)
(0.7334 -0.0241316 6.06839e-23)
(0.76887 -0.0208354 4.13419e-22)
(0.802498 -0.0170013 -2.79892e-22)
(0.833798 -0.0120061 -3.6086e-22)
(0.862451 -0.00605331 -6.69984e-22)
(0.888534 0.000845647 1.24767e-21)
(0.912499 0.00861999 -7.46791e-22)
(0.67721 0.00806051 -3.3171e-22)
(0.703768 0.0114716 -1.48283e-23)
(0.73752 0.0160923 -2.28407e-22)
(0.774034 0.0221516 6.48159e-22)
(0.80875 0.0290689 -1.18495e-22)
(0.841197 0.036855 -6.91102e-23)
(0.871028 0.0454793 -4.63296e-22)
(0.898318 0.0548235 5.77682e-23)
(0.92322 0.0653559 4.31361e-22)
(0.673952 0.0462745 1.05408e-21)
(0.704244 0.0495585 -1.55059e-22)
(0.739705 0.0573328 1.27044e-21)
(0.777254 0.0662988 -1.83862e-21)
(0.812891 0.0764721 2.07429e-22)
(0.846331 0.087232 6.66781e-22)
(0.877243 0.0987422 4.71173e-22)
(0.905731 0.110958 6.77267e-22)
(0.931913 0.12426 -2.38552e-21)
(0.66392 0.0878809 4.65268e-22)
(0.701317 0.0903555 -5.05609e-22)
(0.739419 0.100964 -1.81878e-21)
(0.778056 0.112348 2.42967e-21)
(0.814529 0.125426 8.31239e-22)
(0.848878 0.138961 -4.38586e-22)
(0.880817 0.153226 -5.05481e-23)
(0.910394 0.168187 1.81876e-21)
(0.93741 0.183717 -7.89525e-22)
(0.650255 0.133242 2.10806e-21)
(0.69276 0.135176 -1.51227e-21)
(0.735046 0.147636 1.75352e-21)
(0.775284 0.160599 -1.19447e-21)
(0.812818 0.175904 -1.27235e-21)
(0.848166 0.191833 5.09704e-21)
(0.881143 0.208634 -3.36327e-21)
(0.911795 0.226267 -1.35876e-21)
(0.940392 0.243884 3.3439e-22)
(0.635944 0.178918 -2.78901e-21)
(0.679221 0.181407 2.1112e-21)
(0.725419 0.19585 -9.79027e-22)
(0.767867 0.210091 1.5317e-21)
(0.806948 0.227232 3.49189e-22)
(0.843628 0.245343 -4.13792e-21)
(0.877866 0.264663 3.80373e-22)
(0.90969 0.285098 -1.97673e-21)
(0.939399 0.306176 -2.52459e-21)
(0.62064 0.222283 -5.82834e-22)
(0.661819 0.226088 -4.84062e-22)
(0.710775 0.243224 -1.10851e-21)
(0.755545 0.259175 -4.44644e-21)
(0.796532 0.278184 1.08737e-21)
(0.834913 0.298413 1.87065e-21)
(0.870787 0.320117 2.14306e-21)
(0.904257 0.343047 2.67149e-21)
(0.9354 0.367198 -1.23377e-21)
(0.603425 0.263166 4.66612e-22)
(0.641462 0.268227 1.24623e-22)
(0.691952 0.288309 3.84333e-21)
(0.738607 0.306523 -3.28235e-22)
(0.781513 0.327641 1.8847e-21)
(0.821713 0.350107 -1.28922e-21)
(0.859339 0.374196 -8.99002e-21)
(0.894553 0.399602 -1.3792e-21)
(0.927745 0.426112 -1.93346e-22)
(0.5833 0.302199 1.10844e-21)
(0.618087 0.307797 -5.2817e-21)
(0.669474 0.330446 3.24358e-21)
(0.717443 0.35128 -3.82391e-21)
(0.76209 0.374764 2.90462e-21)
(0.804078 0.399729 -6.79356e-22)
(0.843487 0.42646 2.65615e-21)
(0.880414 0.45466 2.37182e-21)
(0.914576 0.484804 -8.23452e-22)
(0.560426 0.338721 2.56608e-21)
(0.591354 0.344345 4.91143e-21)
(0.643613 0.368971 -8.84202e-21)
(0.692358 0.392747 1.04936e-21)
(0.738458 0.418785 -7.95512e-21)
(0.782096 0.446426 2.29445e-21)
(0.823375 0.475854 8.95867e-22)
(0.862619 0.506821 -1.31838e-21)
(0.898491 0.54135 -6.40984e-22)
(0.535697 0.369439 -1.77552e-21)
(0.561854 0.377058 -4.16541e-21)
(0.615152 0.403458 4.87781e-21)
(0.66402 0.43073 5.11743e-21)
(0.711099 0.459517 5.55709e-21)
(0.755977 0.489983 -3.76805e-22)
(0.79883 0.522062 -1.85271e-21)
(0.840289 0.555953 5.4073e-21)
(0.878158 0.59409 -1.429e-20)
(0.508724 0.392115 5.64896e-22)
(0.530053 0.405088 2.2513e-21)
(0.583529 0.433132 -1.41824e-21)
(0.63148 0.464102 2.6886e-21)
(0.678807 0.495673 -5.17379e-21)
(0.724405 0.529198 -1.41756e-21)
(0.768452 0.563934 7.7912e-21)
(0.812556 0.601 -8.11433e-21)
(0.853939 0.645762 9.04631e-21)
(0.478362 0.409617 1.04253e-21)
(0.499131 0.433596 3.55886e-22)
(0.553033 0.465093 1.47608e-21)
(0.600066 0.498464 -3.11323e-21)
(0.647176 0.532124 8.49923e-22)
(0.692193 0.567803 -4.35723e-21)
(0.736158 0.604055 2.98648e-21)
(0.783892 0.642333 -2.78382e-21)
(0.828022 0.689135 -3.14687e-22)
(0.327444 0.287116 -3.12604e-22)
(0.320594 0.285208 -3.82518e-22)
(0.313351 0.282805 -1.21628e-21)
(0.305349 0.280015 1.71804e-21)
(0.296591 0.276812 -1.2988e-21)
(0.287058 0.273145 9.87953e-22)
(0.276748 0.268956 3.84088e-22)
(0.265672 0.264181 -1.08684e-22)
(0.253865 0.258751 -7.19486e-22)
(0.241376 0.252591 -2.96653e-22)
(0.228282 0.245624 3.31473e-22)
(0.214678 0.237769 -3.63442e-22)
(0.200679 0.228948 1.0113e-21)
(0.186417 0.219088 -2.5638e-21)
(0.172027 0.208115 4.45228e-21)
(0.157656 0.195973 -5.03513e-21)
(0.143454 0.182626 4.48111e-21)
(0.129559 0.168057 -2.03536e-21)
(0.116106 0.152288 -6.69397e-22)
(0.103208 0.13539 6.97732e-22)
(0.0909427 0.11749 -2.4059e-22)
(0.0793153 0.0987813 5.29564e-22)
(0.0681875 0.0795152 2.99155e-23)
(0.0573793 0.0602042 -7.39179e-22)
(0.0466746 0.041241 5.80643e-22)
(0.0378436 0.0222769 -3.06591e-22)
(0.0331204 0.00289608 4.09358e-22)
(0.032605 -0.0172775 3.19232e-22)
(0.0366754 -0.0383502 -3.90825e-22)
(0.0430409 -0.0606311 1.0387e-23)
(0.0493495 -0.0839758 -3.44045e-22)
(0.0560886 -0.107495 3.16721e-22)
(0.0639178 -0.13095 6.02233e-22)
(0.0730316 -0.154091 -4.99784e-22)
(0.0834255 -0.176484 7.19312e-22)
(0.0950676 -0.197913 -1.18539e-21)
(0.107838 -0.218171 1.00577e-22)
(0.121582 -0.237097 2.54084e-22)
(0.136134 -0.254584 -3.92486e-22)
(0.151324 -0.270559 8.79834e-22)
(0.166997 -0.284998 -4.96142e-22)
(0.183 -0.297911 -2.12326e-21)
(0.199187 -0.309333 4.36417e-21)
(0.215419 -0.319325 -4.63995e-21)
(0.231565 -0.327982 4.01575e-21)
(0.24749 -0.335404 -2.36302e-21)
(0.263058 -0.341697 1.20893e-21)
(0.278147 -0.346986 -4.28971e-22)
(0.292628 -0.351384 3.81424e-22)
(0.306389 -0.354998 -4.26566e-22)
(0.319368 -0.35792 -5.71103e-22)
(0.331568 -0.360227 -1.50445e-22)
(0.342985 -0.362004 3.28497e-22)
(0.35361 -0.36334 7.73258e-22)
(0.363439 -0.36431 -1.1738e-21)
(0.372481 -0.364982 1.52378e-21)
(0.380755 -0.36541 -1.04172e-21)
(0.388289 -0.365622 -3.61472e-22)
(0.39519 -0.365706 -2.57461e-22)
(0.344073 0.2573 -1.55018e-23)
(0.337831 0.255517 3.56201e-23)
(0.331112 0.253652 -1.11916e-22)
(0.323813 0.251616 2.56894e-22)
(0.315924 0.249384 3.57846e-23)
(0.307447 0.246867 -6.42206e-22)
(0.298367 0.244001 1.16157e-22)
(0.288669 0.24072 -3.86225e-23)
(0.278344 0.236947 4.75129e-22)
(0.267403 0.232592 -7.14937e-23)
(0.255873 0.227559 -1.29497e-22)
(0.243802 0.221745 -2.597e-22)
(0.231261 0.215048 5.72061e-22)
(0.218335 0.20737 -5.70231e-22)
(0.205135 0.198623 5.93646e-22)
(0.191781 0.188734 -1.63507e-22)
(0.1784 0.17765 -3.60847e-22)
(0.165126 0.165343 3.58201e-22)
(0.152084 0.151809 1.94964e-22)
(0.139389 0.137067 2.34658e-23)
(0.127138 0.121154 6.96383e-24)
(0.115419 0.104105 -5.02078e-22)
(0.104341 0.0859111 3.96044e-22)
(0.0941926 0.0664762 -1.17161e-22)
(0.0854833 0.0454578 4.80827e-22)
(0.078907 0.022785 -2.05553e-22)
(0.0747839 -0.00119329 -2.78558e-23)
(0.0732689 -0.0258549 1.0789e-22)
(0.0744975 -0.0504924 7.40553e-24)
(0.0784259 -0.0745108 -7.21408e-24)
(0.084075 -0.0978986 -8.53124e-23)
(0.0910538 -0.120834 4.77103e-23)
(0.0994216 -0.143239 -4.27492e-23)
(0.109077 -0.164978 -1.28382e-22)
(0.119904 -0.18588 2.65919e-23)
(0.131815 -0.205782 4.26992e-23)
(0.144698 -0.224534 2.34462e-22)
(0.158416 -0.242011 -4.28863e-22)
(0.17282 -0.258123 2.29615e-24)
(0.187755 -0.272807 -7.35883e-23)
(0.203063 -0.286029 8.74955e-23)
(0.21859 -0.297782 3.37e-22)
(0.234182 -0.308084 -6.66236e-22)
(0.249689 -0.316978 -4.02084e-22)
(0.264965 -0.324533 8.21854e-22)
(0.279873 -0.330839 -7.24825e-22)
(0.294288 -0.336009 5.37359e-22)
(0.308098 -0.340173 -1.14194e-22)
(0.321215 -0.343476 -2.35196e-22)
(0.333587 -0.346034 1.70504e-23)
(0.345309 -0.347918 5.00698e-22)
(0.356436 -0.349193 -1.22385e-22)
(0.366916 -0.349962 1.45217e-22)
(0.376745 -0.350332 -6.78185e-22)
(0.385925 -0.350396 1.02408e-22)
(0.39446 -0.350244 2.59506e-22)
(0.402374 -0.349933 -1.74127e-22)
(0.409749 -0.349476 5.19096e-23)
(0.416657 -0.348993 -2.70135e-23)
(0.398548 0.246699 -4.33579e-22)
(0.392187 0.245001 8.4501e-23)
(0.385377 0.243112 -3.76841e-22)
(0.378098 0.241001 -9.26093e-23)
(0.370332 0.238616 1.30129e-21)
(0.362057 0.235909 -4.072e-22)
(0.353256 0.232837 -7.87804e-22)
(0.343912 0.229347 -9.94683e-24)
(0.334021 0.225377 4.7133e-22)
(0.323585 0.220857 -1.23547e-22)
(0.312623 0.215708 1.28121e-21)
(0.301168 0.209849 -1.50291e-21)
(0.28927 0.203191 1.35764e-21)
(0.277001 0.19565 -1.78834e-22)
(0.264444 0.187142 -1.17846e-21)
(0.251701 0.177596 3.47892e-22)
(0.238885 0.166948 1.38829e-21)
(0.226114 0.15515 -5.66024e-22)
(0.213515 0.142166 -1.26814e-22)
(0.201213 0.127969 2.38712e-23)
(0.189342 0.112536 -3.80853e-22)
(0.178052 0.0958362 1.00181e-22)
(0.167528 0.0778255 -9.25161e-22)
(0.158036 0.0584564 1.10763e-21)
(0.149933 0.0377215 -4.31172e-22)
(0.143712 0.0157367 -2.28315e-25)
(0.139837 -0.00722801 5.89316e-23)
(0.138541 -0.0308129 -2.80095e-22)
(0.139842 -0.0546103 1.70991e-22)
(0.14346 -0.0781709 9.34228e-23)
(0.148929 -0.101217 2.18313e-22)
(0.155931 -0.123667 -2.18403e-22)
(0.164291 -0.145432 1.01392e-22)
(0.173871 -0.166396 1.47974e-22)
(0.184547 -0.186453 -4.58211e-22)
(0.196205 -0.205497 1.30194e-21)
(0.208724 -0.223428 -8.44152e-22)
(0.221974 -0.240156 -1.99969e-22)
(0.235821 -0.255614 -1.98819e-22)
(0.250119 -0.269753 -6.78042e-23)
(0.264723 -0.282551 -3.37723e-22)
(0.279487 -0.294005 -5.49554e-22)
(0.294268 -0.304138 1.36893e-21)
(0.308929 -0.312995 6.37964e-22)
(0.323343 -0.320639 -1.30877e-21)
(0.337397 -0.327152 -4.15083e-22)
(0.350998 -0.332626 1.34418e-21)
(0.364077 -0.337164 -1.55905e-21)
(0.376588 -0.340867 1.09737e-21)
(0.388513 -0.343835 -4.52713e-23)
(0.399839 -0.346164 4.27737e-22)
(0.410512 -0.347948 7.16516e-23)
(0.420528 -0.349274 -7.55727e-22)
(0.429897 -0.350202 -3.64607e-22)
(0.438645 -0.350801 1.18618e-21)
(0.446816 -0.351108 -3.76286e-23)
(0.454472 -0.351161 -3.48521e-22)
(0.461639 -0.351014 1.03263e-22)
(0.468357 -0.350705 -3.93533e-22)
(0.436 0.240667 -1.19221e-22)
(0.429633 0.23939 5.68575e-22)
(0.422849 0.237934 -2.75404e-22)
(0.415586 0.23622 2.11553e-22)
(0.407836 0.234221 -2.36312e-22)
(0.399586 0.231894 -1.68653e-23)
(0.390823 0.22919 -1.55902e-22)
(0.381541 0.226054 -4.15248e-22)
(0.37174 0.22242 2.79455e-22)
(0.361426 0.218219 3.56122e-22)
(0.350619 0.213371 2.80419e-22)
(0.339347 0.207794 -1.03297e-21)
(0.327657 0.201401 9.48729e-22)
(0.315608 0.194103 -1.94241e-22)
(0.303277 0.185814 1.32809e-22)
(0.290758 0.176454 -5.72052e-22)
(0.278161 0.16595 5.59792e-22)
(0.265608 0.15424 -2.30993e-22)
(0.253239 0.141272 -3.28418e-22)
(0.241205 0.127006 1.84364e-22)
(0.229672 0.111408 -9.88902e-23)
(0.218827 0.0944562 -5.33287e-22)
(0.20889 0.076139 3.51004e-22)
(0.200117 0.056469 3.53597e-22)
(0.192801 0.0355073 -2.91861e-22)
(0.187248 0.0133971 3.30555e-23)
(0.183712 -0.00961224 3.36826e-22)
(0.18235 -0.033193 -3.98764e-22)
(0.183202 -0.0569844 1.33007e-22)
(0.186177 -0.0806379 -3.60806e-23)
(0.191064 -0.103888 1.69813e-22)
(0.197647 -0.126561 -4.02243e-22)
(0.205741 -0.148517 3.07702e-22)
(0.215173 -0.169634 -7.66486e-24)
(0.225779 -0.189801 -3.9797e-22)
(0.237406 -0.208916 1.63409e-22)
(0.249903 -0.22689 4.44554e-22)
(0.263114 -0.243642 -2.20078e-22)
(0.276888 -0.259109 -1.74213e-22)
(0.29107 -0.27325 3.22391e-22)
(0.305511 -0.286045 -1.11265e-22)
(0.320063 -0.297496 -1.26353e-22)
(0.334583 -0.307625 7.40523e-22)
(0.348944 -0.316479 -6.91373e-22)
(0.363026 -0.324118 2.93238e-22)
(0.37673 -0.330623 -6.29609e-23)
(0.389974 -0.33608 9.46478e-22)
(0.402694 -0.340585 -8.91407e-22)
(0.414845 -0.344235 3.59349e-22)
(0.426398 -0.347125 2.96539e-22)
(0.437339 -0.349343 2.95734e-22)
(0.447667 -0.350978 -4.32097e-22)
(0.457396 -0.352109 -9.96759e-23)
(0.466502 -0.35285 -1.25571e-22)
(0.475043 -0.353235 -2.03916e-22)
(0.483088 -0.353284 1.49396e-22)
(0.490639 -0.35307 -2.69763e-22)
(0.497714 -0.352639 5.50631e-22)
(0.504373 -0.352059 -1.56126e-22)
(0.483009 0.237237 -7.47396e-22)
(0.476678 0.235813 7.38819e-23)
(0.469871 0.234203 7.29143e-22)
(0.462565 0.232359 -5.23254e-22)
(0.45475 0.230238 1.38079e-22)
(0.446421 0.227794 4.52763e-22)
(0.437573 0.224976 -5.83213e-22)
(0.428208 0.221726 2.17769e-22)
(0.418334 0.217982 6.93397e-22)
(0.407966 0.213675 -2.44358e-22)
(0.397128 0.208733 -7.21209e-22)
(0.385854 0.203075 -2.33579e-22)
(0.374191 0.196621 6.08843e-22)
(0.3622 0.189286 5.38037e-22)
(0.349956 0.180987 -1.27748e-22)
(0.337549 0.171644 -7.46374e-22)