/*--------------------------------*- C++ -*----------------------------------*\
  =========                 |
  \\      /  F ield         | OpenFOAM: The Open Source CFD Toolbox
   \\    /   O peration     | Website:  https://openfoam.org
    \\  /    A nd           | Version:  10
     \\/     M anipulation  |
\*---------------------------------------------------------------------------*/
FoamFile
{
    format      ascii;
    class       volScalarField;
    location    "1000";
    object      epsilon;
}
// * * * * * * * * * * * * * * * * * * * * * * * * * * * * * * * * * * * * * //

dimensions      [0 2 -3 0 0 0 0];

internalField   nonuniform List<scalar> 
10435
(
0.0476957
0.152172
0.236165
0.131598
0.570842
0.635255
0.177449
0.0631837
0.0304649
0.470404
0.2818
0.157896
0.400806
0.0265032
0.0269933
0.13431
0.0263468
0.50337
0.0215059
0.0550115
0.0938143
0.0863406
0.182531
0.0431754
0.398021
0.0103332
0.0175626
0.301289
0.016211
0.510291
0.283243
0.362586
0.0493462
0.0167145
0.0769302
0.0560049
0.108704
0.0181504
0.00679087
0.0291684
0.578149
0.190373
0.0194493
0.0993232
0.157691
0.037032
0.598534
0.0186073
0.0230126
0.0553482
0.0756581
0.459108
0.00661619
0.0127097
0.00758916
0.0145946
0.0866121
0.0195651
0.0250594
0.058778
0.00752243
0.108667
0.0196389
0.462567
0.173656
0.285733
0.0229895
0.0228383
0.0800546
0.0452126
0.0123564
0.0141521
0.0128279
0.256509
0.0281247
0.0186719
0.0494472
0.145397
0.0381979
0.0261586
0.0551174
0.0338097
0.00646365
0.0131209
0.05448
0.0440559
0.053599
0.132724
0.0318364
0.0674602
0.163853
0.198815
0.037339
0.03624
0.0851644
0.0419265
0.209103
0.0276744
0.0256939
0.299003
0.029325
0.765925
0.0433371
0.1067
0.755504
0.116748
0.0411816
0.0554905
0.0544965
0.0270975
0.0529968
0.751931
0.0308516
0.0286455
0.300509
0.0800613
0.290196
0.056562
0.170164
0.199802
0.266351
0.0147982
0.0743677
0.0225909
0.567128
0.00898031
0.20541
0.0162749
0.420853
0.0168345
0.0189221
0.462959
0.0990229
0.0256789
0.0159315
0.00627041
0.0372629
0.13787
0.130269
0.0715526
0.0630205
0.222375
0.020843
0.298432
0.0888709
0.0240018
0.0282544
0.551479
0.0252759
0.206877
0.0161021
0.137723
0.0580499
0.230533
0.500914
0.0132506
0.655039
0.0986499
0.497143
0.252316
0.193929
0.025552
0.275839
0.092298
0.029962
0.364585
0.0480411
0.135776
0.0895626
0.374587
0.407975
0.010585
0.015996
0.0256143
0.145048
0.172809
0.0772058
0.024244
0.0493831
0.0180933
0.209811
0.666513
0.193269
0.00839915
0.200882
0.0160332
0.0160676
0.125773
0.612226
0.371336
0.217088
0.00641975
0.0157407
0.0520822
0.717164
0.100342
0.0224667
0.0356437
0.0216662
0.125432
0.0312511
0.0178973
0.347105
0.0193364
0.302819
0.401267
0.219576
0.137353
0.0203338
0.0884199
0.0135502
0.200311
0.275826
0.106145
0.0175037
0.0255687
0.0325228
0.00872031
0.0104859
0.0256425
0.0167656
0.025849
0.0223391
0.0245404
0.0120156
0.0904299
0.00848441
0.0303679
0.3434
0.019476
0.0247381
0.0659218
0.0094221
0.123463
0.018265
0.0261887
0.0737991
0.011803
0.0708852
0.338152
0.0837606
0.0103992
0.00958988
0.0141708
0.344529
0.035422
0.0327853
0.0822983
0.0125883
0.114925
0.0122089
0.0350567
0.427106
0.0882952
0.104788
0.479941
0.0111869
0.123747
0.0118247
0.0179236
0.145139
0.401851
0.0102293
0.0649895
0.0362758
0.0257323
0.0699764
0.23686
0.00763674
0.417622
0.170589
0.0590797
0.0845689
0.359133
0.0116434
0.194633
0.0172676
0.5615
0.123161
0.0487655
0.419804
0.0229118
0.198918
0.0276458
0.0405295
0.00748884
0.598061
0.00762026
0.0134964
0.0173497
0.0268924
0.353214
0.0203624
0.0700375
0.00692986
0.0120799
0.0229316
0.0413642
0.51706
0.316731
0.0228035
0.0734485
0.227546
0.0138269
0.446945
0.0263601
0.0252579
0.111064
0.301873
0.0137116
0.0453357
0.0158982
0.0762469
0.597416
0.041965
0.0125306
0.00903132
0.277608
0.0241104
0.140375
0.735523
0.0181448
0.0481647
0.00637601
0.0397145
0.357307
0.0128898
0.258083
0.0243985
0.0186495
0.0437071
0.0188535
0.0137603
0.211005
0.165491
0.0207845
0.0130532
0.0129087
0.01512
0.0154918
0.0139452
0.0137673
0.00741323
0.0159058
0.0152792
0.0154093
0.0219141
0.0185778
0.00633357
0.0317894
0.0141296
0.35197
0.017038
0.292438
0.032775
0.0195017
0.393299
0.238024
0.0135009
0.0152237
0.0130542
0.00921782
0.0150487
0.00751772
0.0171844
0.0148893
0.0210061
0.12704
0.0145223
0.0278191
0.00836397
0.0159174
0.424748
0.0155806
0.00778243
0.0173939
0.0188796
0.0180668
0.0149295
0.0115252
0.0202182
0.00798604
0.0441086
0.0225664
0.0676243
0.0276549
0.329327
0.366159
0.023701
0.264979
0.0577038
0.0212344
0.0129661
0.0153688
0.0128526
0.237272
0.0142611
0.433268
0.0194163
0.0184276
0.0166506
0.0198916
0.0100266
0.15588
0.0183896
0.0546354
0.102486
0.0106515
0.0125917
0.0182435
0.0170718
0.0181381
0.013535
0.0113988
0.0148809
0.0203132
0.0166781
0.261652
0.0124271
0.0129374
0.0166201
0.0176727
0.495255
0.00820566
0.00672578
0.0120056
0.0150196
4.01337e-05
3.80609e-05
3.53689e-05
3.24337e-05
2.94948e-05
2.65282e-05
2.35108e-05
2.04183e-05
1.72364e-05
4.24673e-05
3.99058e-05
3.67477e-05
3.34515e-05
3.01968e-05
2.7001e-05
2.38501e-05
2.07576e-05
1.77802e-05
4.55849e-05
4.24821e-05
3.88132e-05
3.5089e-05
3.14752e-05
2.79956e-05
2.46494e-05
2.14602e-05
1.84927e-05
4.99214e-05
4.618e-05
4.18879e-05
3.76331e-05
3.35652e-05
2.97069e-05
2.60613e-05
2.26457e-05
1.95053e-05
5.60406e-05
5.15106e-05
4.64145e-05
4.1464e-05
3.67877e-05
3.2405e-05
2.83128e-05
2.45125e-05
2.1011e-05
6.47459e-05
5.91959e-05
5.30228e-05
4.71257e-05
4.16098e-05
3.649e-05
3.1752e-05
2.7382e-05
2.33646e-05
7.72611e-05
7.02962e-05
6.26305e-05
5.54169e-05
4.8727e-05
4.25666e-05
3.69084e-05
3.17318e-05
2.70235e-05
9.55401e-05
8.63627e-05
7.65824e-05
6.75245e-05
5.91887e-05
5.15564e-05
4.45851e-05
3.82536e-05
3.25674e-05
0.000122338
0.000109568
9.68356e-05
8.52201e-05
7.45876e-05
6.48744e-05
5.60194e-05
4.79942e-05
4.08091e-05
0.000160751
0.000142807
0.000126204
0.00011113
9.73289e-05
8.46897e-05
7.31393e-05
6.26328e-05
5.31447e-05
0.000213711
0.000189872
0.000168661
0.000149071
0.000130973
0.000114269
9.89105e-05
8.48499e-05
7.20421e-05
0.000284134
0.000255959
0.000229733
0.000204411
0.000180592
0.000158345
0.000137715
0.000118683
0.000101229
0.00037651
0.000348773
0.000316958
0.000284334
0.000252994
0.000223355
0.000195612
0.000169801
0.000145997
0.000510376
0.000480188
0.000440069
0.000397688
0.000356522
0.000317268
0.000280219
0.000245463
0.000213187
0.000704985
0.000662944
0.00060935
0.000553811
0.000500098
0.000448769
0.000400026
0.000353884
0.000310363
0.000973461
0.000905933
0.000832762
0.00076057
0.000691677
0.00062597
0.000563343
0.000503729
0.00044713
0.001312
0.00121007
0.00111375
0.00102284
0.000937039
0.000855329
0.000777172
0.00070243
0.000631445
0.00169804
0.0015692
0.00145176
0.0013427
0.00123991
0.00114177
0.0010473
0.000956136
0.000868561
0.00212409
0.00197932
0.00184602
0.00172161
0.00160353
0.00149002
0.00137977
0.00127207
0.00116684
0.00259387
0.0024427
0.00229888
0.00216282
0.00203248
0.00190617
0.00178221
0.00165954
0.00153823
0.00311834
0.00296689
0.00281625
0.00267215
0.00253356
0.00239846
0.00226439
0.00212947
0.00199306
0.00371305
0.00356213
0.00340601
0.0032572
0.00311543
0.0029773
0.00283896
0.00269712
0.00255026
0.00440025
0.00423935
0.00407604
0.00392602
0.00378777
0.00365464
0.00352055
0.00338047
0.00323239
0.00520649
0.00500634
0.00483126
0.00468528
0.00455998
0.00444272
0.00432448
0.00419774
0.00405995
0.00615092
0.00585893
0.00567252
0.00554074
0.00544227
0.00535472
0.00526682
0.0051697
0.00503793
0.000711771
0.0006977
0.000687505
0.000681167
0.000678678
0.000679947
0.00068486
0.000693214
0.000704797
0.000719303
0.000736417
0.000755766
0.000776897
0.00079934
0.000822518
0.000845842
0.000868678
0.000890361
0.000910225
0.00092761
0.000941806
0.000952011
0.00095704
0.000955225
0.000946088
0.000931166
0.000910898
0.000884765
0.000852356
0.000815668
0.000775491
0.00073215
0.000686163
0.000638408
0.000589681
0.000540728
0.000492248
0.000444878
0.00039919
0.00035567
0.000314707
0.000276595
0.000241512
0.000209532
0.000180669
0.000154933
0.000132318
0.000112771
9.61698e-05
8.23394e-05
7.10366e-05
6.19733e-05
5.48514e-05
4.93829e-05
4.53155e-05
4.24364e-05
4.05786e-05
3.96189e-05
3.94574e-05
0.00073449
0.000722505
0.000714133
0.000709394
0.000708252
0.000710612
0.000716305
0.000725078
0.000736573
0.000750369
0.000766194
0.000783726
0.000802593
0.000822366
0.000842568
0.000862679
0.000882148
0.0009004
0.000916852
0.000930918
0.000942007
0.000949503
0.000952703
0.00095074
0.000942763
0.000928332
0.00090746
0.000880579
0.000848571
0.000812424
0.00077279
0.000730165
0.000685092
0.000638209
0.000590204
0.000541771
0.000493588
0.00044629
0.000400452
0.000356573
0.00031507
0.000276277
0.000240438
0.000207723
0.00017824
0.000152059
0.000129195
0.000109583
9.30856e-05
7.94443e-05
6.83509e-05
5.94871e-05
5.25412e-05
4.72184e-05
4.32572e-05
4.0442e-05
3.86044e-05
3.7622e-05
3.73884e-05
0.000742196
0.000731591
0.000724074
0.000719645
0.000718274
0.000719899
0.000724413
0.000731668
0.000741463
0.00075354
0.0007676
0.00078331
0.000800296
0.000818146
0.000836411
0.000854603
0.000872208
0.000888686
0.000903478
0.000916012
0.000925685
0.000931852
0.000933813
0.000930842
0.000922337
0.000907974
0.000887729
0.000861882
0.000831018
0.000795896
0.000757216
0.000715584
0.000671595
0.000625871
0.000579057
0.000531795
0.000484712
0.000438402
0.000393402
0.000350193
0.000309189
0.00027074
0.00023513
0.000202589
0.000173286
0.000147326
0.000124732
0.000105431
8.92474e-05
7.59166e-05
6.51236e-05
5.65267e-05
4.98e-05
4.46433e-05
4.07971e-05
3.80488e-05
3.6232e-05
3.52273e-05
3.49349e-05
0.000726184
0.000716317
0.000709337
0.000705212
0.000703881
0.000705252
0.000709205
0.000715591
0.000724225
0.000734887
0.000747326
0.000761255
0.000776352
0.000792256
0.000808567
0.000824843
0.000840611
0.000855363
0.00086856
0.000879636
0.000888
0.000893032
0.000894107
0.000890618
0.000882063
0.000868135
0.000848783
0.00082423
0.000794938
0.000761515
0.000724601
0.000684823
0.000642793
0.000599123
0.00055442
0.000509279
0.000464275
0.000419949
0.000376802
0.00033529
0.000295816
0.000258737
0.000224359
0.000192938
0.000164665
0.000139655
0.000117932
9.94177e-05
8.39311e-05
7.12095e-05
6.09424e-05
5.27854e-05
4.64076e-05
4.1515e-05
3.78584e-05
3.52358e-05
3.34881e-05
3.24999e-05
3.2176e-05
0.000696159
0.000687128
0.000680749
0.000676983
0.000675766
0.000676999
0.000680561
0.000686306
0.000694058
0.000703616
0.00071475
0.000727202
0.00074068
0.000754861
0.00076938
0.000783839
0.000797803
0.000810796
0.000822317
0.000831833
0.00083879
0.00084262
0.000842775
0.000838743
0.000830118
0.000816655
0.000798305
0.000775231
0.00074778
0.000716435
0.000681754
0.000644321
0.000604733
0.000563579
0.000521439
0.000478875
0.000436419
0.000394579
0.000353829
0.000314604
0.000277296
0.000242256
0.00020979
0.000180149
0.000153519
0.000130004
0.000109617
9.2272e-05
7.7787e-05
6.59062e-05
5.63244e-05
4.87185e-05
4.27765e-05
3.82185e-05
3.48073e-05
3.23507e-05
3.06996e-05
2.97457e-05
2.93994e-05
0.000651813
0.000643309
0.000637288
0.000633708
0.0006325
0.000633564
0.000636771
0.000641974
0.000648996
0.000657642
0.000667688
0.000678892
0.00069098
0.000703653
0.000716575
0.00072938
0.000741666
0.000752999
0.000762922
0.000770955
0.000776598
0.00077935
0.000778733
0.000774319
0.000765765
0.000752877
0.000735615
0.000714113
0.000688648
0.000659616
0.000627497
0.000592818
0.000556139
0.000518018
0.000478995
0.000439596
0.000400312
0.000361613
0.000323951
0.000287734
0.000253328
0.000221062
0.000191217
0.00016402
0.000139635
0.000118145
9.95475e-05
8.37485e-05
7.0571e-05
5.97715e-05
5.10656e-05
4.41567e-05
3.87594e-05
3.46183e-05
3.15164e-05
2.92758e-05
2.77603e-05
2.68721e-05
2.65295e-05
0.000595452
0.000587445
0.000581723
0.000578254
0.000576981
0.000577807
0.000580613
0.000585253
0.000591557
0.000599331
0.000608361
0.000618413
0.000629231
0.00064053
0.000651998
0.000663303
0.000674076
0.000683911
0.0006924
0.00069911
0.000703598
0.000705425
0.000704194
0.000699549
0.000691193
0.000678981
0.000662893
0.000643053
0.000619679
0.000593101
0.000563745
0.000532079
0.00049864
0.000463953
0.000428499
0.000392772
0.000357213
0.000322248
0.000288312
0.000255764
0.000224925
0.000196077
0.000169459
0.000145263
0.000123618
0.00010458
8.81299e-05
7.41706e-05
6.25346e-05
5.29996e-05
4.53114e-05
3.92069e-05
3.44349e-05
3.07703e-05
2.80215e-05
2.60327e-05
2.46829e-05
2.38841e-05
2.35633e-05
0.00052507
0.000517272
0.000511589
0.000508018
0.000506517
0.000507007
0.00050937
0.000513472
0.000519136
0.000526154
0.000534344
0.000543447
0.000553214
0.000563368
0.000573633
0.000583736
0.000593351
0.000602065
0.000609524
0.000615283
0.000618949
0.000620134
0.000618564
0.000613986
0.000606075
0.000594776
0.000580073
0.000562107
0.000540993
0.00051702
0.000490603
0.000462169
0.00043229
0.000401459
0.000370031
0.00033849
0.000307231
0.000276611
0.000247068
0.000218855
0.000192232
0.000167418
0.000144593
0.000123907
0.000105456
8.92565e-05
7.52899e-05
6.34491e-05
5.3579e-05
4.54837e-05
3.8947e-05
3.37497e-05
2.9682e-05
2.65568e-05
2.42136e-05
2.25209e-05
2.13756e-05
2.07014e-05
2.04344e-05
0.000437393
0.0004295
0.00042362
0.00041983
0.000418138
0.000418438
0.000420564
0.000424248
0.000429516
0.00043639
0.000444286
0.000452961
0.000462087
0.000471316
0.000480635
0.000489754
0.000498674
0.00050727
0.000514623
0.000520013
0.000523205
0.000524002
0.000522404
0.000518163
0.00051111
0.000501122
0.000488253
0.000472564
0.00045398
0.000432662
0.000409258
0.000384262
0.000358251
0.000331703
0.000304897
0.00027786
0.000251154
0.000225684
0.000201319
0.000178042
0.000156194
0.000135945
0.000117388
0.000100585
8.55866e-05
7.24803e-05
6.12151e-05
5.17441e-05
4.38703e-05
3.7357e-05
3.20405e-05
2.77862e-05
2.44548e-05
2.19008e-05
1.99919e-05
1.86297e-05
1.77312e-05
1.72311e-05
1.70714e-05
0.0122786
0.0109829
0.00981284
0.00873378
0.00772711
0.00679015
0.00592414
0.00513168
0.00441283
0.00376497
0.00320296
0.00274018
0.00237204
0.00208145
0.00183849
0.00162775
0.00144921
0.00130289
0.00118706
0.00109559
0.00101984
0.000952914
0.000889407
0.00082461
0.000753726
0.0117392
0.0107444
0.00968985
0.00864718
0.00764654
0.00670369
0.00582978
0.00503096
0.00431052
0.00367261
0.00312292
0.00266267
0.00228612
0.00198205
0.00173629
0.001537
0.00137614
0.00124752
0.00114572
0.00106508
0.000999399
0.000942691
0.000889672
0.000835539
0.000775454
0.0117955
0.0107273
0.00963972
0.0085711
0.007546
0.00658249
0.00569357
0.00488699
0.0041675
0.00353816
0.00299919
0.00254698
0.00217469
0.0018732
0.00163236
0.00144233
0.00129404
0.00117928
0.00109077
0.00102209
0.000967184
0.000920318
0.000876209
0.000830176
0.000778155
0.0119693
0.0107684
0.00959924
0.00847654
0.00741518
0.00642832
0.00552642
0.00471613
0.00400081
0.00338087
0.00285328
0.00241205
0.00204946
0.00175689
0.00152533
0.0013456
0.00120851
0.00110522
0.00102778
0.000969236
0.000923382
0.000884485
0.000847269
0.000807102
0.000759826
0.0121661
0.0108373
0.0095722
0.0083809
0.0072737
0.00625911
0.0053434
0.00452997
0.00381926
0.00320873
0.00269292
0.00226422
0.00191405
0.0016335
0.00141357
0.00124509
0.00111884
0.00102589
0.000958048
0.000908125
0.000869753
0.000837207
0.00080532
0.000769769
0.000727135
0.0123358
0.0108923
0.0095305
0.00826736
0.00711243
0.00606998
0.00514142
0.00432615
0.00362116
0.00302109
0.00251843
0.00210419
0.00176877
0.00150254
0.00129601
0.00113974
0.0010244
0.000941109
0.000881752
0.000839137
0.000806945
0.000779602
0.00075203
0.000720307
0.00068109
0.0124919
0.0109269
0.009462
0.00812513
0.00692358
0.00585553
0.00491639
0.00410126
0.00340383
0.00281609
0.00232869
0.00193127
0.00161304
0.00136328
0.00117175
0.00102861
0.000924424
0.000850478
0.000798879
0.000762624
0.000735558
0.000712309
0.000688188
0.000659416
0.000623098
0.0126562
0.0109291
0.00934879
0.00793924
0.00669636
0.00560814
0.00466273
0.00385074
0.00316358
0.00259086
0.00212145
0.00174374
0.00144572
0.00121483
0.00104002
0.000911027
0.000818353
0.000753587
0.000709247
0.000678647
0.000655844
0.000635794
0.000614003
0.000586864
0.000551988
0.0127897
0.0108645
0.00916526
0.00769295
0.00642064
0.00532152
0.00437662
0.00357098
0.00289673
0.0023425
0.001894
0.0015395
0.00126588
0.00105662
0.000900403
0.000786742
0.000705898
0.000650152
0.000612766
0.000587445
0.000568183
0.000550638
0.000529815
0.00050138
0.00046458
0.477547
0.455965
6.20908
0.342623
0.000276359
0.0004009
0.0314646
3.87158e-05
5.31277
2.4655e-05
3.22244
0.000167304
0.00226582
0.000864612
0.0236111
0.000288882
3.78835
0.235075
1.55206e-05
0.119751
0.00300259
0.000135528
3.48581
0.00139127
2.93005e-05
6.35539e-05
2.84055e-05
0.00663108
0.703088
3.21389
1.61399e-05
9.90059e-05
2.53713
0.00409976
3.13202
0.000169039
0.0135395
0.0239881
0.0142674
0.000207463
3.89873
4.80972e-05
0.000100457
0.0179357
0.00345626
0.00021192
5.18056
5.98716
1.25845
1.31343
4.74743
3.18034
0.00195372
0.182711
0.0288305
5.05099
0.00071293
0.00198668
0.000116256
3.0307
0.000296521
6.37475
0.000273316
0.00021238
4.0434e-05
0.0172307
8.54598e-05
0.00539153
0.00248025
1.25219
4.50464
0.000191203
0.000118088
0.104124
2.95717e-05
0.00266354
0.0708881
5.23912
2.88128e-05
0.120182
0.00365665
0.000449081
4.93738e-05
3.25447
0.000263868
0.000324453
9.16789e-05
5.02798
2.59673
0.000842013
0.00169047
0.000233407
4.80348e-05
0.000183851
0.000157781
3.24084
6.75426e-05
3.70126
0.00012573
2.92627
0.00214363
3.8239
0.00258632
0.000191712
9.15629e-05
0.00332041
3.69059
0.00359447
0.000176005
3.22169
0.000151676
0.000199636
3.55416
0.000179626
0.00190324
1.20753
2.60604
0.000171105
0.00188663
0.00014831
1.73574e-05
0.000181037
0.00134959
3.18759e-05
2.7136
9.73948e-05
3.21151
0.0574544
7.01136e-05
5.95763
4.5953e-05
0.0974041
1.31372
0.0103775
0.00864758
9.35008e-05
0.00321532
0.00120364
0.000255102
0.140166
0.000119938
0.0134876
3.21186
2.19766e-05
0.8692
0.000353017
0.479372
0.0183403
0.000290319
3.18515
0.00449541
0.000375556
0.478694
0.0365053
3.81848e-05
3.15541
6.56852e-05
0.000163636
0.0625607
5.94328e-05
0.000102073
4.69829
0.000141394
3.96464
8.00617e-05
4.0798
0.000886468
2.82583e-05
0.000380642
7.98287e-05
0.000741001
0.00022315
0.00564394
3.58058
8.52681e-05
0.00433026
0.00817191
0.973288
1.81861
0.000124861
0.00921695
9.85024e-05
0.00190637
0.011247
0.0136522
6.3902e-05
4.49132
0.000171814
1.59221
0.00027233
4.8582
3.0696
0.79475
0.0129819
0.0294152
1.86035
2.88198e-05
0.000130422
1.02528
0.550819
0.00402017
0.000400245
0.000409455
0.000295651
0.00342282
4.79268e-05
0.000105427
0.00261976
1.37025
0.000128644
8.51063e-05
0.000218984
0.00838498
0.0031184
0.00540702
4.57677
0.000189506
4.25571e-05
0.000317752
0.00157847
0.00218521
5.7119e-05
4.5833e-05
5.68757
0.00532878
2.86115
0.000702951
3.7253
0.0001588
0.000138993
2.90341
0.000172688
0.000102339
4.86233e-05
0.0141937
3.25287e-05
0.0516324
0.00394465
0.0116854
0.0394771
1.97073e-05
0.000297735
7.96431e-05
0.0113948
0.000104966
8.01425e-05
8.88325e-05
0.0053217
0.000276755
6.48266e-05
0.000134266
0.00476509
4.17325e-05
1.19499
0.000103244
3.28125e-05
3.44279
0.0653496
0.0594059
1.53849e-05
0.00516486
9.3968e-05
0.000181221
3.34538e-05
0.0908241
3.61194e-05
5.27743e-05
0.722282
0.0324027
2.82464e-05
0.00452176
0.898806
0.000134412
4.34927e-05
1.69093e-05
0.734908
0.000144056
5.75861
0.000746694
3.76458
0.020137
0.00471201
0.00431796
0.000209033
1.83512
0.00030249
0.00368382
0.0178347
4.52143
5.15966
0.0428711
0.000155067
2.81551e-05
4.84597
0.0106804
4.43465
4.05463
0.000150352
6.25111e-05
2.20169
3.33449
0.000101982
0.000368418
0.000319202
3.65086
6.51711e-05
0.00321813
4.38779e-05
0.140118
0.000421584
0.000193977
8.39776e-05
2.03076
5.42927e-05
0.000142347
0.0131488
5.70755
4.6657e-05
3.00063e-05
0.0170612
0.06191
8.1135e-05
0.00042817
1.61734e-05
0.000101174
3.67668e-05
2.5249
0.00389611
0.00013243
0.00214281
7.59834e-05
0.0281544
0.00167528
2.75188e-05
4.48393
0.000355862
8.15812e-05
5.3901e-05
2.78704e-05
0.00503735
0.000237859
0.000139913
2.35979
7.39749e-05
0.0839781
0.000192177
0.000578359
0.000110461
8.86981e-05
4.99543
0.125568
4.98938e-05
0.000129373
0.0569283
4.88369
0.00407933
0.0281737
0.0162247
8.09339e-05
5.5347
1.37839
3.11303
5.41915e-05
2.75541
3.69426e-05
7.93882e-05
0.000316682
5.78655
0.000157609
1.46169
0.000128389
0.0361819
0.681553
3.26045
0.00228452
4.92988e-05
9.45651e-05
7.63275e-05
6.67184e-05
2.93815e-05
3.95185
0.00021434
2.6872
0.0199155
0.0175748
0.019434
8.20034e-05
0.115131
2.92248
4.89633
0.0209778
4.95825e-05
0.00257211
2.47086
0.00928168
1.96312e-05
6.75956e-05
2.47579
0.000163063
0.728456
4.09679e-05
0.000101694
0.00026176
0.915841
0.000119706
5.46422e-08
0.0274375
0.00292309
0.0133636
2.01091e-05
1.74743
0.000170893
2.16807
0.000241807
7.02557e-05
0.000892974
1.40617
4.9895
0.000117526
0.000224375
8.58516e-05
6.7283e-05
0.000991503
0.00325103
0.000320851
4.43541
1.26184e-05
0.000513146
3.2378e-05
9.6944e-05
0.000273801
3.66092e-05
0.000892026
2.6395e-05
0.0417197
0.000296053
0.000148242
1.67122e-05
0.000104912
0.000604506
5.54782e-05
0.0392637
4.77741
0.0148116
0.00269712
3.71172
0.00471567
2.24669
8.2913e-05
2.91906e-05
3.27092
9.4195e-05
0.000140942
2.04328
7.86457e-05
1.15334
5.14829
0.000316281
0.00179761
0.0487029
0.000155842
0.0125826
1.62992
0.00753314
3.91254
5.66015e-05
0.000120018
6.1909
5.3493e-05
2.96993
0.00463316
6.45207e-05
3.09093
0.000639215
3.26549e-05
0.00310744
0.000671587
5.37618e-05
0.0180413
0.012338
0.00567034
0.0142558
4.67332e-06
0.000148049
3.13947
0.000203558
0.000415469
0.000250412
1.30683
0.000137247
0.0278889
0.00018886
7.68056e-05
2.38412
0.00014633
0.000221377
0.0263193
0.000277714
5.62664e-05
1.41069
0.000102751
0.0416663
0.000201181
0.00911865
0.00724292
0.00504916
0.000286737
0.000261578
0.0290082
8.93721e-05
0.000108581
0.0045979
8.38649e-05
0.00056528
6.73816e-05
5.7295
3.53582
1.50296
5.29063e-05
0.0118774
4.04467e-05
5.11374
0.123696
1.48712
0.00394869
0.000255855
4.21925
3.74812
4.85804e-05
0.000266931
0.0046748
0.000146493
1.03985
3.37387
0.000171316
0.0171321
0.000103
1.93266
1.13435
0.000203103
0.0161834
3.38577
0.00012658
4.00302
0.000172597
4.76855
0.000109479
0.00174267
0.000269715
5.64648
0.0141961
0.014699
6.60128e-05
1.24343
1.4631
5.81655
3.91975e-05
6.89175e-05
0.0019962
1.59756
3.7492e-05
0.0104957
0.000104471
0.00253967
3.24478
1.99839e-05
0.0105268
8.89793e-05
9.69642e-05
0.00648605
2.21886
0.000295165
0.017715
0.000155829
0.000283229
3.49081
5.47382
1.65827
0.00203272
0.00705548
0.134625
0.00182232
0.000389697
4.39998e-05
3.86416e-05
2.45628
0.000118928
0.000409251
0.0229017
0.000343186
0.000689489
0.000388756
0.000196953
0.0346985
8.55252e-05
0.000124347
0.00331909
1.55611
0.000218652
9.3527e-05
2.39944
0.00645231
4.47651e-05
0.000504127
0.0518211
0.000112736
0.000320517
3.18238e-05
0.0127377
9.4157e-05
0.000104192
0.0142812
7.28802e-05
0.000360968
0.00272999
0.00227493
7.35278e-05
0.000544355
4.61405
0.000235598
4.44775e-05
8.04639e-05
5.85524e-05
0.000764746
7.44832e-05
2.79776
6.32951
0.00584465
2.29876
3.79025e-05
2.99466e-05
5.4315e-05
7.63144e-05
0.000348728
0.000144959
0.00318268
0.000826837
5.68556e-05
0.000315702
0.0291595
0.00943325
0.00145317
0.0169397
0.000122065
0.000349692
4.81159e-05
0.00218442
0.0171204
2.7115
0.0340873
0.0557979
0.000100881
2.43618e-05
0.000108673
0.000275012
2.75965e-05
5.5143
1.48715e-05
0.00606294
7.77093e-05
1.8313
0.0620928
3.14652
1.10515e-05
5.55445e-05
3.64223e-05
3.81314
2.45228
0.0131097
0.00186907
6.44311e-05
2.05546e-05
0.000241508
3.13867
2.08374e-05
6.72412e-05
0.0116449
0.000148889
0.000138684
3.25079e-05
0.000128488
0.00218339
0.000548697
5.16859e-05
5.26913e-05
0.00191432
7.62421e-05
0.901463
4.12861
9.40653e-05
0.0264102
0.000134667
3.07814
4.0349e-05
7.10304e-05
6.82047e-05
5.80473e-05
0.0267518
0.00026678
0.000109177
0.000120097
0.00460048
0.000100787
0.000257382
0.000169579
3.97979
0.0237869
0.00393798
5.58596
0.0288787
1.33084
3.12046
1.64403e-05
6.33439e-05
5.00327e-05
2.03452e-07
0.000184928
0.019807
0.000343989
0.000135027
0.00210602
2.78636e-05
2.49629e-05
0.00800804
8.54664e-05
4.53396e-05
4.90109e-05
0.00390911
0.00479911
3.99364
2.24988e-05
1.97072
0.0325495
0.923966
0.00644715
3.93784
4.51314
1.01927
4.30076e-05
0.000281747
9.29237e-06
0.00368802
0.000128303
0.0105392
0.690767
5.67806e-05
0.072336
0.014759
6.59798e-05
4.5506e-05
0.000187867
6.10256
3.85918
7.43975e-05
0.037151
0.036871
0.00215314
2.21211
5.20885e-09
6.21993e-05
0.00851031
1.40792e-05
0.598526
0.0136437
3.24276
0.0351839
3.76279e-05
0.0355023
0.000165161
1.60138e-06
0.012271
0.000600237
0.00151097
6.07464e-05
9.71789e-05
0.0147568
0.000291149
5.18246e-05
0.000103859
0.000192956
0.00862599
0.000199788
3.21574
0.0270037
0.000121895
0.0866513
0.000226714
0.131933
0.000374519
4.05626e-05
0.000127719
0.00754804
0.00485359
1.77365e-05
0.000153262
5.04171
3.49062
0.0331381
0.000273678
0.0153717
0.00782133
0.0428844
4.14654
0.0110861
0.00132712
8.58086e-05
3.56677
0.000124882
3.95044e-05
0.00240375
1.86861
5.76741
0.000105568
0.000193121
1.35861
4.71621e-05
4.57679
2.0688
0.000139105
0.000105639
6.49303
0.707687
0.809138
7.33525e-05
5.5984e-05
7.30483e-05
0.0129508
0.0139156
9.17478e-05
3.95104e-05
0.000270927
0.0303893
0.000328748
0.00879794
0.77056
2.1523e-05
0.000102316
2.75552
2.58877e-05
0.00411012
0.00022212
0.00704132
7.55558e-05
7.19847e-05
0.00836512
0.000178371
6.01543e-05
5.65396e-05
0.00528567
0.0045212
4.73459
4.81935e-05
5.30189e-05
0.00012811
0.0191579
0.136584
5.28265
0.000146588
0.00356737
0.0260542
7.505e-07
3.51229e-05
0.000489873
2.96268
0.000106206
0.106055
0.000306836
6.7709e-06
0.0161085
0.000265903
1.6974
1.37781
0.0161603
3.30095
3.79022
5.96667
2.73436e-05
2.14421
0.0155943
0.000108466
0.0277232
0.000140212
0.000512258
0.0630485
0.000254621
0.00137319
0.0079462
4.18893
6.17494e-05
4.34838e-05
2.01199
0.00102353
0.000331379
0.0275199
0.801957
0.0245609
4.8061e-05
0.00316916
5.64653
3.19976
0.0100811
0.00322422
1.2353
0.000931415
6.46113e-05
0.0131281
1.72817
8.20084e-05
0.00853972
0.00049068
2.01776
0.000327081
0.0140141
0.746441
1.99888e-05
0.000350738
5.17755e-05
2.06624
0.023615
2.0684
1.05719
0.000325661
0.00751739
0.0105138
0.0017626
0.645739
0.00194386
5.34908e-05
0.000292447
0.000236003
9.19133e-05
0.0155142
3.16028
0.000192126
2.09055
0.000149616
0.0486692
2.99279e-05
0.000144872
3.57932e-05
3.40936
1.8339
0.0060536
0.00536428
8.18389e-05
0.000113579
0.0402202
2.88346e-05
0.0225783
0.0110602
3.05811
0.00020975
0.00480397
0.043025
0.000307214
0.000352217
0.00040039
3.10363
0.000174769
0.00175498
0.045861
0.0281774
0.00012412
0.00177058
3.71347e-05
0.000165677
0.000177749
0.000116931
0.00281116
7.1587e-05
0.00404566
1.9387
0.126067
3.26937
0.000132234
0.003293
0.0103675
4.64133e-05
0.832124
0.000316584
0.000799206
3.58507
0.000313713
0.00767171
0.000904769
2.99413e-05
1.30891
3.51732e-05
0.00516279
9.28123e-05
0.0334648
0.0385047
2.56566
4.70782e-05
0.0409839
8.78401e-05
0.00661613
0.000281677
2.3993
0.0111047
0.00352276
3.36908
0.000260049
5.0914
0.000193056
1.09634
0.000518351
4.1356e-05
0.000159664
0.0152496
0.026458
0.00019308
4.98075e-05
0.0750963
5.26031e-05
5.31196e-05
5.83744e-05
9.40658e-05
0.000207509
5.81701
0.000351143
0.000170918
0.0371219
0.00563105
5.94663
8.01531e-05
7.74559e-05
0.00011028
0.0023467
0.000398474
0.000465495
3.67406
0.00296849
0.0168984
5.99438e-05
0.00195771
0.0188755
2.1698
6.94491e-05
4.28783e-05
0.000372616
0.000384084
8.74639e-05
0.00895853
4.77214
0.181694
0.00849222
7.50009e-05
0.0416396
3.03755
0.00408834
0.0474164
0.000315668
0.855146
3.0367
5.5062
0.000221557
0.000229941
0.00261101
2.00691
0.000343609
4.20858
0.000733546
0.00853613
1.6083
2.37698e-05
0.000269721
0.000749472
3.03976e-05
1.59701e-05
0.000647421
0.724983
1.90593e-05
2.0303
7.4692e-05
0.000103698
6.74892e-05
2.93108e-05
0.00230699
0.000209925
0.126976
0.00857179
0.000217978
0.000304196
1.03676
3.05021
5.1348e-05
0.000124126
0.000173388
0.0111173
0.0932463
0.00329758
3.50359
5.96676e-05
3.15788e-05
0.00204415
0.000189624
0.00305448
0.0376404
7.57179e-05
8.15338e-05
2.03188e-05
0.00129025
0.0102446
3.11764
0.0409249
3.34838e-05
0.0031404
2.30953e-05
3.25409
3.61156
8.50861e-05
3.03218e-05
0.0702619
8.92482e-05
0.000185661
0.915727
0.734851
0.000826345
3.78267e-05
7.90349e-05
0.0110312
0.738499
8.47614e-05
6.66586e-05
0.696142
2.05142
7.82159e-07
9.45331e-05
5.0483e-05
0.000154462
0.00807114
0.00199543
0.000155194
0.0443118
0.00024638
9.96769e-05
0.000160335
0.002529
0.000113282
4.39358
1.54823
3.1282
0.641141
0.0189142
0.584646
9.2469e-05
2.98832
0.00290703
4.33664e-05
0.00265226
0.000218931
0.00240217
9.18052e-05
0.000160166
0.000121456
2.46285
3.43955e-05
0.00526073
0.039185
0.00084231
0.00340412
0.00689104
5.4805
7.17559e-05
4.74168
3.66093
0.00071083
0.000111905
0.00264058
0.00414146
0.00196707
0.0330216
3.83519
0.00010927
7.12372e-05
8.56186e-05
0.0159756
3.42926
0.000339383
0.000596584
4.35833e-05
5.30398e-05
0.000409381
0.00788485
3.0226e-05
0.00103406
0.00191992
1.30809
6.13073e-05
0.00288068
5.10617
0.000255001
0.00400865
0.00215709
1.35214
0.00426176
0.00615572
0.00184627
0.000125231
2.28663
1.86263
0.000196612
0.0116416
0.0249455
7.19193e-05
0.00046119
0.000118012
0.016937
8.45457e-05
0.00268531
4.75328e-05
0.0381098
1.16949
0.0620335
1.17028
0.00125583
0.000363743
0.0709433
0.0346245
0.000755514
0.000225974
0.000306909
3.04185
0.000118099
0.00323765
9.40374e-05
0.00025513
0.013275
0.000168578
0.000118873
5.07964e-05
2.20183
0.071272
2.53884e-05
0.000227282
1.77291e-05
8.95034e-05
0.000246447
1.18832
0.000189968
0.0150608
1.85748
0.0300284
2.8047e-06
0.0484675
0.661195
0.133368
0.907884
0.00155631
0.00767952
2.84887
2.64894
4.81941e-05
1.70369
6.60112e-05
5.16764
0.0228593
2.35589e-05
0.00268221
0.0226545
5.00663
0.00622216
0.00434969
9.98322e-05
0.0336431
1.57947
0.00651306
2.94751
0.000290561
0.130549
3.76715e-05
1.89242
0.00337821
9.31407e-05
0.000236623
0.0856829
0.000114828
0.000826
0.145727
7.66003e-05
1.16881
0.000107689
0.000105277
0.0336268
0.0341505
0.000650652
0.00208495
0.0288572
0.00032676
0.00419489
0.00969626
5.09265e-05
0.0063335
3.4091e-05
0.972784
0.00427106
4.40262e-05
4.10806
3.80967e-05
0.00281417
0.00875643
9.37406e-05
0.00011867
0.00250169
0.0129242
0.0275601
0.000121172
4.72897
8.77135e-05
0.00369542
4.47014