/*--------------------------------*- C++ -*----------------------------------*\
  =========                 |
  \\      /  F ield         | OpenFOAM: The Open Source CFD Toolbox
   \\    /   O peration     | Website:  https://openfoam.org
    \\  /    A nd           | Version:  10
     \\/     M anipulation  |
\*---------------------------------------------------------------------------*/
FoamFile
{
    format      ascii;
    class       volScalarField;
    location    "1000";
    object      k;
}
// * * * * * * * * * * * * * * * * * * * * * * * * * * * * * * * * * * * * * //

dimensions      [0 2 -2 0 0 0 0];

internalField   nonuniform List<scalar> 
10435
(
1.11157
1.29
1.46596
1.51393
1.95707
1.84236
1.3618
1.09576
0.946421
1.74756
1.54151
1.62032
1.61392
0.825916
0.847191
1.32214
0.808907
1.69052
0.889227
1.17202
1.19799
1.40183
1.43362
1.18291
1.72001
0.485683
0.634378
1.5302
0.579046
1.72324
1.67213
1.65985
1.0427
0.584218
1.19881
0.978383
1.31471
0.659345
0.37915
0.990683
1.75213
1.40211
0.655076
1.37274
1.44548
1.09915
1.79524
0.636283
0.883451
1.30007
1.14695
1.85574
0.368784
0.508948
0.404894
0.537734
1.28864
0.67643
0.752736
1.16323
0.39801
1.17349
0.664921
1.90125
1.44688
1.5487
0.703777
0.720034
1.1486
1.24258
0.50282
0.581611
0.510206
1.53543
0.875658
0.651286
1.29513
1.29817
0.987634
0.859532
1.3496
1.00684
0.358951
0.516222
1.35546
0.968663
1.07711
1.42867
0.89999
1.1567
1.52603
1.62181
1.05512
0.945693
1.24306
0.90209
1.67705
0.85225
0.779931
1.80247
0.874298
1.96344
1.00586
1.33406
1.95672
1.44857
1.10474
1.33078
1.35153
0.888265
1.25667
1.94852
0.961965
0.922327
1.76878
1.35211
1.80917
1.04394
1.44466
1.69948
1.79057
0.567017
1.1302
0.702778
1.7223
0.443166
1.69834
0.603102
1.90677
0.653285
0.653001
1.60919
1.22628
0.835458
0.620804
0.336714
0.816231
1.55697
1.33381
1.29365
1.23301
1.56787
0.662299
1.78094
1.4371
0.770564
0.754367
1.90299
0.786384
1.67104
0.588754
1.43658
1.14784
1.68207
1.8342
0.537247
1.82322
1.22778
1.79174
1.34262
1.58555
0.81538
1.67287
1.47345
0.9109
1.883
1.04227
1.58235
1.42493
1.87021
1.76027
0.451056
0.577457
0.801315
1.54976
1.21049
1.06853
0.747228
1.20737
0.620234
1.41381
1.89111
1.66584
0.42224
1.57022
0.579316
0.588591
1.26087
1.96387
1.83048
1.72421
0.352818
0.627388
0.890606
1.90027
1.20238
0.728789
0.905529
0.696557
1.32867
0.912281
0.643654
1.57551
0.670723
1.54543
1.83515
1.55957
1.57698
0.67134
1.45572
0.528633
1.43922
1.79391
1.49831
0.622304
0.802174
0.951887
0.415325
0.490995
0.797978
0.591466
0.778887
0.697241
0.768189
0.520451
1.21918
0.431311
0.858505
1.76307
0.673126
0.751625
1.12354
0.459391
1.43511
0.679104
0.792635
1.29049
0.522657
1.31948
1.71221
1.2969
0.47658
0.432806
0.533715
1.76372
0.972807
0.8388
1.14889
0.46343
1.08818
0.472866
0.959456
1.64962
1.46424
1.20681
1.93614
0.421931
1.25019
0.494921
0.634143
1.29543
1.78378
0.478186
1.37022
0.99914
0.76765
1.22137
1.56456
0.391589
1.88172
1.3439
1.07566
1.15445
1.66514
0.525687
1.6939
0.652273
1.91518
1.27407
1.03621
1.67316
0.728784
1.39122
0.831587
1.0141
0.377677
1.95592
0.403829
0.522361
0.600837
0.787413
1.47902
0.665573
1.11128
0.385121
0.495136
0.746187
1.05304
1.85052
1.66153
0.718319
1.3565
1.4331
0.502958
1.7639
0.82466
0.776391
1.43581
1.61458
0.524725
1.15622
0.60696
0.980801
1.93998
1.02393
0.498931
0.434788
1.72141
0.737548
1.59244
1.93582
0.627878
1.07769
0.347122
0.994821
1.60251
0.56417
1.47353
0.736992
0.671284
1.05947
0.626233
0.523392
1.41539
1.566
0.689804
0.503382
0.480642
0.54732
0.557709
0.592036
0.561444
0.390132
0.576942
0.554357
0.584337
0.703052
0.689132
0.341913
0.950404
0.528763
1.6222
0.617906
1.51401
0.956755
0.851418
1.59444
1.5366
0.523567
0.557195
0.491361
0.453116
0.54348
0.383104
0.607178
0.613079
0.693213
1.53017
0.598939
0.922202
0.428207
0.636938
1.61101
0.809032
0.381731
0.635879
0.658575
0.661364
0.553143
0.520527
0.747826
0.415188
1.01692
0.70814
1.10554
0.922207
1.55082
1.57971
0.890625
1.48631
1.10749
0.708558
0.509857
0.56223
0.508419
1.45036
0.540045
1.62238
0.724558
0.630248
0.6509
0.651202
0.45549
1.33786
0.660481
1.06056
1.43897
0.454767
0.55187
0.68768
0.827389
0.69574
0.576401
0.496878
0.541179
0.675194
0.590403
1.48994
0.503145
0.55541
0.588
0.596619
1.64999
0.387601
0.348161
0.763525
0.550441
0.0980807
0.0955508
0.0918283
0.0875163
0.0829951
0.0782736
0.0733717
0.0683233
0.0631768
0.098277
0.0953791
0.091448
0.0870701
0.0825184
0.0778598
0.0731288
0.068407
0.0638276
0.0981752
0.0949637
0.090858
0.0864183
0.08187
0.0772862
0.0727216
0.06827
0.0640775
0.0979525
0.0944687
0.0902012
0.0857103
0.0811751
0.0766646
0.0722407
0.0679915
0.0640375
0.0977503
0.094036
0.0896129
0.0850706
0.0805418
0.0760895
0.0717718
0.0676617
0.0638397
0.0977063
0.0938002
0.0892221
0.0846156
0.0800737
0.0756542
0.071407
0.0673913
0.0636667
0.0979987
0.093906
0.0891553
0.084458
0.0798744
0.0754572
0.0712486
0.0673008
0.06367
0.0989189
0.0945096
0.0895389
0.0847125
0.0800536
0.0756053
0.071403
0.0674972
0.0639479
0.100735
0.0957495
0.0905028
0.0855067
0.080738
0.0762223
0.071989
0.0680847
0.064569
0.10342
0.0977105
0.0921835
0.0869918
0.0820825
0.0774618
0.0731554
0.0692032
0.0656506
0.106641
0.100436
0.0947333
0.0893557
0.0842852
0.079524
0.0751016
0.0710545
0.0674183
0.110024
0.104025
0.0983543
0.0928395
0.0876012
0.0826694
0.0780913
0.0739085
0.0701632
0.113535
0.10881
0.103369
0.0977671
0.0923531
0.0872202
0.0824451
0.0780819
0.0741901
0.119448
0.115592
0.110278
0.104548
0.0989167
0.0935361
0.0885108
0.083911
0.0798122
0.129097
0.125122
0.119586
0.113584
0.107649
0.101952
0.096608
0.0916942
0.0872728
0.142858
0.137723
0.13157
0.125124
0.118783
0.112694
0.106967
0.101686
0.0969149
0.159815
0.153113
0.146163
0.139177
0.132364
0.125829
0.11967
0.11398
0.108853
0.178211
0.170617
0.163042
0.155561
0.148282
0.141293
0.134683
0.128545
0.122981
0.197626
0.189809
0.181902
0.17406
0.16639
0.158995
0.151962
0.14538
0.13934
0.218259
0.210644
0.202625
0.194557
0.186604
0.178894
0.171517
0.16456
0.158126
0.24057
0.233316
0.225266
0.217054
0.208927
0.201023
0.193418
0.186177
0.179392
0.265123
0.258095
0.249933
0.241601
0.233409
0.225463
0.217799
0.210441
0.203459
0.292686
0.285233
0.276696
0.268225
0.260095
0.252303
0.244808
0.23758
0.230687
0.324167
0.314797
0.305451
0.296849
0.288964
0.281582
0.274546
0.267736
0.261215
0.360407
0.346308
0.335868
0.327318
0.319975
0.31333
0.307094
0.301072
0.294546
0.167504
0.167507
0.168238
0.169702
0.171908
0.174846
0.178501
0.182836
0.187817
0.193384
0.199479
0.206034
0.212961
0.220173
0.227559
0.235011
0.242408
0.249624
0.25653
0.263001
0.268895
0.274058
0.278274
0.281246
0.282857
0.283307
0.282622
0.280675
0.277347
0.272936
0.267538
0.261173
0.253901
0.24586
0.237184
0.228014
0.218491
0.208762
0.198968
0.189248
0.179727
0.170516
0.161697
0.153328
0.14545
0.138107
0.13135
0.12523
0.119781
0.115029
0.110974
0.10759
0.104837
0.102654
0.100989
0.0997826
0.0989887
0.0985638
0.0984741
0.169072
0.169402
0.170419
0.172137
0.17456
0.177677
0.181464
0.185881
0.190868
0.196355
0.202286
0.208597
0.215216
0.222059
0.229031
0.236033
0.242957
0.249689
0.256116
0.262118
0.267575
0.272361
0.276334
0.279323
0.281159
0.281728
0.280986
0.278957
0.275742
0.271467
0.266207
0.260014
0.252954
0.245121
0.236624
0.227588
0.218144
0.208431
0.198583
0.188732
0.179003
0.16951
0.160352
0.151616
0.143382
0.135729
0.128732
0.122451
0.116932
0.112169
0.108128
0.104767
0.102038
0.0998785
0.0982215
0.0970062
0.0961805
0.0957016
0.0955235
0.167978
0.168433
0.169512
0.171225
0.173574
0.176552
0.180142
0.184316
0.189036
0.194254
0.199911
0.205941
0.212272
0.218822
0.225502
0.232218
0.238866
0.245339
0.251526
0.25731
0.26257
0.267174
0.270979
0.273837
0.275615
0.27622
0.275604
0.273767
0.270763
0.266677
0.261591
0.255578
0.248711
0.241081
0.23279
0.223949
0.214678
0.205103
0.19535
0.185541
0.175799
0.166241
0.156977
0.148117
0.139766
0.132021
0.12497
0.118673
0.11316
0.108424
0.104431
0.101124
0.0984397
0.0963093
0.094666
0.0934492
0.0926074
0.0921012
0.0918923
0.163054
0.163515
0.164576
0.166241
0.168509
0.171369
0.174801
0.178779
0.183266
0.188219
0.193585
0.199306
0.205315
0.211539
0.217897
0.224298
0.230648
0.236843
0.242774
0.248326
0.253377
0.2578
0.261463
0.264234
0.265996
0.266659
0.266171
0.264524
0.261753
0.257918
0.253092
0.24735
0.240773
0.233447
0.22547
0.216943
0.207976
0.198684
0.189183
0.179591
0.170028
0.160613
0.151467
0.142709
0.134457
0.126815
0.119873
0.113689
0.10829
0.103669
0.099791
0.096591
0.0939941
0.091929
0.0903308
0.0891437
0.0883187
0.0878176
0.0876044
0.155642
0.1561
0.157127
0.15873
0.160905
0.163641
0.166918
0.170709
0.17498
0.17969
0.184789
0.190223
0.195931
0.201844
0.207885
0.213971
0.220012
0.225909
0.231558
0.236847
0.241661
0.245878
0.249377
0.252041
0.253767
0.254474
0.254113
0.252667
0.250153
0.246612
0.242104
0.236699
0.230473
0.223514
0.215911
0.207762
0.199169
0.190239
0.181085
0.171822
0.162569
0.153448
0.144584
0.136101
0.128116
0.120735
0.114042
0.108093
0.10291
0.0984814
0.0947676
0.091707
0.0892283
0.0872602
0.085737
0.0846023
0.0838095
0.0833228
0.0831081
0.145792
0.146184
0.147126
0.148622
0.150668
0.153254
0.156359
0.159956
0.164012
0.168485
0.173328
0.17849
0.183911
0.189526
0.195262
0.201041
0.206776
0.212374
0.217737
0.22276
0.227333
0.231345
0.234684
0.237245
0.238934
0.239679
0.239433
0.238176
0.235914
0.232677
0.228512
0.223482
0.217661
0.21113
0.203974
0.196287
0.188164
0.179705
0.171021
0.162224
0.153431
0.144762
0.13634
0.128286
0.120714
0.113724
0.107395
0.101777
0.0968893
0.0927174
0.0892219
0.086345
0.0840193
0.0821778
0.0807579
0.0797028
0.0789683
0.0785223
0.0783334
0.133826
0.134124
0.134949
0.136306
0.138195
0.140604
0.143516
0.146903
0.150733
0.154965
0.159554
0.164449
0.169593
0.174921
0.180367
0.185854
0.191301
0.196618
0.201712
0.206483
0.21083
0.214647
0.217836
0.220302
0.221957
0.222737
0.222599
0.221523
0.219507
0.216572
0.21276
0.208125
0.202742
0.19669
0.190046
0.1829
0.17534
0.16746
0.159372
0.15118
0.142992
0.134923
0.127085
0.119594
0.112555
0.106061
0.100183
0.0949662
0.0904268
0.0865524
0.0833068
0.0806373
0.0784832
0.0767825
0.0754773
0.0745168
0.0738589
0.0734722
0.0733268
0.119472
0.1196
0.120238
0.121398
0.123082
0.12528
0.127975
0.131144
0.13475
0.138754
0.143112
0.147768
0.152664
0.157739
0.162929
0.168167
0.173379
0.17847
0.183354
0.187926
0.192088
0.195743
0.19881
0.201212
0.202854
0.203687
0.203669
0.202785
0.201016
0.198378
0.194917
0.190684
0.185766
0.180245
0.174174
0.167648
0.160751
0.153563
0.146204
0.138755
0.131316
0.123983
0.116858
0.110045
0.103645
0.0977328
0.0923807
0.0876239
0.0834767
0.0799298
0.0769547
0.0745086
0.0725395
0.0709948
0.0698238
0.0689806
0.0684269
0.068132
0.0680659
0.102196
0.102036
0.102391
0.103289
0.104737
0.106726
0.109224
0.112183
0.115605
0.119487
0.123715
0.128228
0.132951
0.137811
0.142789
0.147815
0.152873
0.157914
0.162743
0.167209
0.171237
0.174758
0.177741
0.180108
0.181788
0.182724
0.182884
0.18224
0.18074
0.178374
0.175242
0.171415
0.166989
0.162052
0.156653
0.150786
0.144575
0.138256
0.131811
0.125244
0.118688
0.112229
0.105938
0.0998949
0.0941814
0.0889034
0.0841179
0.0798899
0.0762044
0.073008
0.0702847
0.0680301
0.0662233
0.0648242
0.0637841
0.0630701
0.0626479
0.0624875
0.0625561
0.517561
0.479468
0.445715
0.414235
0.384141
0.355262
0.327679
0.301598
0.277196
0.254597
0.234569
0.217935
0.204867
0.194935
0.186939
0.180213
0.174867
0.171046
0.168819
0.167941
0.167908
0.168273
0.168631
0.168567
0.167559
0.49299
0.468379
0.439882
0.410309
0.380767
0.351847
0.324018
0.29764
0.273029
0.250569
0.230743
0.2139
0.200109
0.189165
0.180659
0.174222
0.169617
0.166657
0.165166
0.164901
0.165534
0.166694
0.168005
0.169068
0.169398
0.489496
0.4638
0.43538
0.405741
0.375862
0.346477
0.318173
0.291415
0.266616
0.244171
0.224402
0.207491
0.193468
0.182231
0.173581
0.167281
0.163072
0.16067
0.159793
0.160138
0.161382
0.163166
0.165106
0.166804
0.167841
0.490347
0.461371
0.431147
0.400338
0.369605
0.339562
0.310764
0.283691
0.258756
0.236305
0.216576
0.199681
0.185633
0.174368
0.165755
0.159604
0.155657
0.153604
0.153111
0.15384
0.155445
0.157555
0.159775
0.161698
0.16288
0.492046
0.45985
0.427264
0.394732
0.362758
0.331842
0.302458
0.27503
0.249923
0.227422
0.207707
0.190857
0.176869
0.165682
0.157178
0.151173
0.147407
0.145563
0.145282
0.146199
0.147942
0.15013
0.152363
0.154261
0.155458
0.493162
0.458075
0.423038
0.388601
0.355235
0.323351
0.293323
0.265505
0.240196
0.217621
0.197919
0.181142
0.167267
0.156219
0.147863
0.142001
0.13836
0.136616
0.1364
0.137331
0.139023
0.141093
0.143141
0.144821
0.145783
0.49386
0.455822
0.418203
0.381767
0.346955
0.314068
0.283369
0.255132
0.229596
0.206936
0.187256
0.170584
0.156871
0.146005
0.137823
0.132099
0.128542
0.126817
0.126554
0.127359
0.128838
0.130605
0.132282
0.133534
0.134077
0.494443
0.452844
0.412428
0.373973
0.337755
0.3039
0.272538
0.243867
0.218095
0.195349
0.175706
0.159176
0.145687
0.135053
0.127074
0.121488
0.117982
0.116212
0.115813
0.116381
0.117512
0.118814
0.1199
0.120444
0.120215
0.494278
0.448575
0.405295
0.364952
0.32749
0.292776
0.260816
0.231688
0.205653
0.182833
0.163231
0.146889
0.133727
0.123387
0.115646
0.110211
0.106723
0.104851
0.104248
0.104509
0.10518
0.105895
0.106162
0.1055
0.103805
1.63563
1.62441
5.38297
0.806652
0.0585995
0.0693138
1.16722
0.0292551
4.92779
0.060157
2.83603
0.0557376
0.521763
0.0839893
1.29782
0.0920465
3.5233
0.65773
0.0576659
0.756151
0.409516
0.0889468
3.11993
0.165562
0.0243485
0.038657
0.0243691
0.296939
1.68945
3.07106
0.0590241
0.0503062
3.19815
0.632609
2.98338
0.051522
1.09209
1.30513
1.14758
0.0806943
3.67711
0.00901933
0.06565
0.63167
0.240889
0.131713
3.73257
4.08512
2.10649
2.32539
3.53475
3.17814
0.445189
0.578936
1.1174
4.8228
0.0757913
0.4176
0.0305891
2.74928
0.068943
5.48328
0.0572935
0.0977171
0.0301965
0.580783
0.0651912
0.303208
0.537409
2.24912
4.5555
0.111745
0.0385304
0.821209
0.0255422
0.402788
0.951026
3.94867
0.0211941
0.485138
0.600562
0.0918395
0.0354433
2.78028
0.0604799
0.0715106
0.0369191
3.88564
3.24028
0.121794
0.173705
0.0798944
0.0711616
0.0586905
0.0430462
2.85866
0.0391331
3.04404
0.0220272
2.70276
0.150618
3.68034
0.167932
0.117584
0.028888
0.218565
3.25069
0.591347
0.0296367
3.08892
0.0885314
0.0500239
3.27694
0.11462
0.435109
2.07501
3.1857
0.0766951
0.47417
0.0332583
0.00330424
0.0480064
0.163057
0.0244595
3.28696
0.0628317
3.2261
0.668691
0.0263397
4.08195
0.0336066
0.828174
2.29265
0.988327
0.361598
0.0366827
0.233087
0.10768
0.0670663
0.747261
0.0975774
1.0922
2.84927
0.00441634
1.81769
0.108268
0.995353
0.650568
0.0906673
3.02128
0.412961
0.0636199
0.987958
1.50823
0.0274624
2.72903
0.0286526
0.075424
1.12043
0.0538504
0.0672921
4.63758
0.0722494
3.17903
0.0736406
3.17319
0.0910727
0.0243746
0.124946
0.0299113
0.0740924
0.104342
0.313881
2.93942
0.0659731
0.246404
0.708703
1.9711
2.36836
0.0984572
0.880269
0.0485956
0.452535
0.918826
0.507976
0.0246675
3.35163
0.0298894
2.57253
0.0805266
3.60871
2.78567
1.53264
1.06287
1.39159
2.78326
0.0252404
0.0861488
1.94329
1.62251
0.615938
0.149238
0.0857174
0.0832031
0.252202
0.0620924
0.0675812
0.16621
2.24142
0.071511
0.028444
0.0609898
0.856957
0.232727
0.514818
3.9104
0.0427843
0.0288968
0.150827
0.160137
0.134889
0.0105541
0.0285256
5.14663
0.166856
3.27969
0.117713
3.52434
0.0260957
0.0413365
2.59692
0.0528485
0.0470868
0.0276952
1.13619
0.0621035
1.19471
0.202496
0.950596
1.58029
0.0580193
0.0683332
0.0702641
0.439036
0.0373279
0.037449
0.0506588
0.300929
0.0902333
0.0575101
0.0220871
0.264634
0.0597472
2.09078
0.0356198
0.0246976
3.19221
0.972895
1.14279
0.0578563
0.311378
0.0293721
0.0631354
0.0263804
0.85482
0.0246086
0.0619804
1.29557
1.16052
0.0244026
0.475782
1.66668
0.0256154
0.0274932
0.0585821
1.32124
0.0721389
4.9859
0.083188
3.20385
0.64405
0.440199
0.272719
0.13031
2.35666
0.0754368
0.231272
0.263777
3.54161
3.74097
1.52554
0.0774134
0.00548087
3.67202
0.824429
3.88165
3.70027
0.0725253
0.055471
2.48758
2.99434
0.0684571
0.0886165
0.0877285
3.51611
0.0662079
0.403664
0.0602478
0.743317
0.0899833
0.114201
0.091079
2.91377
0.0245445
0.0244751
1.06436
3.98827
0.060643
0.0244629
1.0869
1.11506
0.0535355
0.092708
0.058317
0.0385588
0.0246251
3.13602
0.607919
0.0710697
0.425846
0.0727346
1.37194
0.112534
0.0610966
3.69973
0.0760982
0.0440797
0.0380944
0.00786005
0.303645
0.0631185
0.0517097
2.46128
0.0877609
0.860873
0.0422184
0.0758738
0.035734
0.0350134
3.58018
0.73597
0.0714362
0.0149507
1.14572
3.70625
0.151053
1.20263
0.622903
0.0687515
3.78994
2.27193
2.90794
0.0488661
3.22801
0.00804363
0.0340695
0.113055
4.07093
0.0594327
2.45563
0.107151
1.48878
1.69608
3.51276
0.521466
0.0252397
0.0310147
0.0791587
0.0507977
0.0609203
3.66736
0.0963473
3.2605
0.680278
0.647558
1.00619
0.0756999
0.757342
2.71671
3.62025
0.754789
0.061879
0.204002
3.1323
0.858822
0.0588519
0.0654011
3.137
0.0745742
1.71513
0.0297768
0.0666634
0.0595621
1.94608
0.0480669
0.000265412
1.21972
0.218011
0.778292
0.0575895
2.6465
0.0605588
2.44142
0.0646969
0.0471415
0.0829098
2.17967
3.58328
0.0623435
0.0790484
0.0766543
0.0528244
0.130818
0.189504
0.11805
3.51082
0.00419273
0.10523
0.0596768
0.051289
0.0787882
0.0250244
0.124498
0.0212309
1.44297
0.107362
0.0886083
0.00341358
0.0362109
0.0892543
0.0537649
1.57871
3.69528
0.695443
0.549538
3.89812
0.230199
3.05128
0.0282406
0.0209772
3.57434
0.0629602
0.0705456
2.42025
0.0895633
2.16072
3.62222
0.0720737
0.18067
0.740526
0.0794213
0.486729
2.52531
0.811282
3.28195
0.0311631
0.0323824
5.40937
0.0524693
2.76274
0.279333
0.0314498
2.90479
0.0890298
0.0245423
0.571247
0.111121
0.0279058
0.682773
0.604587
0.519885
1.15414
0.00259731
0.0527446
2.71901
0.0511866
0.0903073
0.126675
2.26359
0.100466
1.34674
0.0798526
0.029238
3.10634
0.0568322
0.0399056
1.316
0.0737134
0.0713987
2.41311
0.0673779
1.46919
0.0625288
0.372694
0.68024
0.687955
0.0805291
0.0795814
1.22453
0.0488226
0.0799152
0.653988
0.0654159
0.104308
0.0234021
4.05213
3.49938
2.23046
0.0257601
0.516829
0.0707353
3.72899
0.758446
2.07464
0.62467
0.13556
3.40718
3.72814
0.0617292
0.118809
0.254672
0.105356
1.67998
3.91575
0.0360743
0.779075
0.0668468
2.45642
2.04414
0.084336
1.05447
3.21892
0.0852728
3.42658
0.0187558
4.64667
0.0570181
0.11499
0.0736389
4.86912
1.12746
1.15986
0.0260982
2.14534
2.22348
4.06116
0.0272939
0.0841675
0.496675
2.41758
0.0606718
0.996776
0.0681135
0.534995
3.08932
0.058892
0.509082
0.0284033
0.0511196
0.349195
3.03924
0.144943
1.19047
0.0353552
0.0560306
3.26272
3.79948
2.47588
0.129418
0.364987
0.783526
0.449316
0.145158
0.0721864
0.0295074
3.11387
0.082476
0.0688603
1.21006
0.137001
0.0944468
0.0767829
0.0937098
1.40523
0.0911335
0.0309448
0.583823
2.26213
0.0524175
0.0486574
2.4939
0.297478
0.0094494
0.103044
0.654893
0.0380912
0.0773675
0.0582342
0.23731
0.0609152
0.0688539
1.15064
0.0364763
0.120335
0.190159
0.443609
0.0393963
0.0751024
4.53151
0.109245
0.0289825
0.0528022
0.0812659
0.101978
0.0388554
2.6387
4.12486
0.269516
3.0182
0.028804
0.0245174
0.0292726
0.0183896
0.108775
0.0317389
0.471784
0.125139
0.0298012
0.0571393
1.24004
0.489122
0.110463
0.574902
0.0821888
0.06502
0.0330434
0.199805
0.76513
2.60244
1.41209
1.16372
0.019681
0.0603232
0.012936
0.141111
0.0577
3.82267
0.0588594
0.423413
0.0526081
2.58485
0.383229
2.77644
0.00282432
0.0299457
0.0281016
3.7012
3.23555
0.481481
0.443991
0.0363785
0.0601808
0.0565562
2.87499
0.00583512
0.0455065
1.05104
0.0486435
0.110929
0.0606079
0.0244946
0.44693
0.103489
0.036764
0.0605061
0.133641
0.0780955
1.85907
3.5328
0.0506962
1.24798
0.0634326
2.81021
0.0304105
0.0856326
0.0581475
0.0343134
1.22857
0.070424
0.0819353
0.0308776
0.284159
0.037769
0.129924
0.111153
3.20431
1.24761
0.395031
3.95061
1.36489
2.29229
2.96522
0.0581832
0.0288356
0.0298082
0.000516314
0.0763329
0.638866
0.100838
0.0473732
0.505923
0.0654992
0.0588948
0.390511
0.0613804
0.060814
0.031944
0.398079
0.659732
3.74786
0.0605187
2.51121
1.05223
1.92024
0.438104
3.77821
3.52485
1.64727
0.0268373
0.0870184
0.00343538
0.256015
0.0656175
0.763303
1.76507
0.0798022
1.08981
0.709563
0.0365449
0.03128
0.0601503
4.01488
4.09412
0.0416978
1.1941
1.45229
0.479946
2.7914
5.29474e-05
0.055519
0.39833
0.00479226
1.71671
0.803697
2.99561
1.44838
0.0249926
1.45759
0.0290331
0.0015912
0.465677
0.0877431
0.122794
0.0523921
0.0637086
0.52805
0.0874343
0.0265276
0.0689018
0.0747152
0.383059
0.0782126
2.96447
1.33088
0.0851814
0.681203
0.103404
0.782476
0.0742441
0.0726293
0.106262
0.549242
0.47366
0.00576078
0.106718
3.61711
3.84828
0.943014
0.0691399
0.678677
0.738114
1.32594
4.19403
1.02446
0.133231
0.0926979
3.14915
0.0196545
0.0289765
0.201466
2.78113
5.17882
0.0470067
0.0530165
2.3711
0.0280044
4.55612
2.93721
0.102464
0.0465725
5.34422
1.74803
1.88173
0.0704815
0.0486578
0.0166128
0.642135
1.10819
0.0643413
0.0277659
0.0436754
0.925204
0.0702084
0.424431
1.8277
0.060172
0.0557295
3.18009
0.0620955
0.511256
0.0501815
0.516592
0.0641154
0.0312135
0.734823
0.107202
0.081718
0.0706537
0.287949
0.512887
3.77471
0.0314587
0.0606179
0.0641687
1.2168
0.76558
4.94656
0.028526
0.592601
1.33861
0.0010359
0.0250947
0.0571713
2.6187
0.0677444
0.911999
0.102355
0.00235926
1.05896
0.0829729
2.26511
2.05641
0.614919
2.95437
3.11598
3.9829
0.0626525
2.92957
1.13944
0.101052
1.12466
0.0488737
0.0577012
0.776069
0.0691738
0.150099
0.455939
4.25622
0.0247812
0.0198252
2.87642
0.111034
0.0894308
1.23437
1.83114
1.05379
0.0751621
0.235296
3.96505
2.98094
0.843547
0.490206
2.23747
0.118434
0.0252633
0.609187
2.33652
0.0648901
0.316428
0.0754038
2.88526
0.107757
0.849077
1.8516
0.00411522
0.0514787
0.0765806
2.40346
1.16144
2.67043
1.9592
0.143136
0.335752
0.474235
0.169343
1.73893
0.408386
0.0502472
0.0797488
0.0690348
0.019331
0.715887
2.85979
0.0433633
2.47266
0.114335
1.2108
0.0665014
0.0473187
0.0279142
3.93515
2.61696
0.279377
0.499495
0.0453211
0.0333922
1.48708
0.0597386
1.17577
1.0123
3.34194
0.0493604
0.280183
1.50376
0.0915846
0.132031
0.0834125
3.34561
0.0752142
0.132374
1.20837
1.25943
0.0323363
0.171486
0.0593053
0.106004
0.0360784
0.0376659
0.447607
0.0325075
0.271631
2.39984
0.771908
3.83876
0.0718324
0.24667
0.667444
0.019559
1.7836
0.0598853
0.078452
3.34701
0.100645
0.393371
0.117829
0.0245988
2.18425
0.0624063
0.275874
0.0230261
1.12371
1.24097
3.19262
0.0282692
1.03282
0.047341
0.333329
0.0936134
2.64735
0.954589
0.255672
3.22382
0.0629657
3.64609
0.0643037
2.02899
0.0915978
0.0288949
0.0742427
0.889501
1.34067
0.0372622
0.0751392
0.803061
0.046898
0.0787091
0.0294505
0.0209701
0.0876441
4.04599
0.119855
0.071934
1.42469
0.285304
3.97065
0.0178834
0.0885784
0.0446876
0.120561
0.138861
0.0585254
3.68095
0.131513
0.615408
0.0485068
0.179017
0.703077
2.50837
0.0697817
0.0711512
0.091067
0.13375
0.0545004
0.328312
3.58478
0.570152
0.480011
0.042418
1.51803
3.33058
0.231436
0.770667
0.0952765
1.87569
2.87023
3.7977
0.0627877
0.0658364
0.187702
2.67087
0.146387
4.33711
0.120887
0.413999
2.52663
0.0220069
0.0870885
0.0864769
0.0629965
0.0595191
0.0717352
1.77471
0.0589796
2.89604
0.0644411
0.0480529
0.0319357
0.059907
0.463824
0.0555238
0.80659
0.74527
0.0536495
0.114686
1.97121
2.71025
0.0492171
0.0598227
0.109671
0.345539
0.437382
0.212104
3.07268
0.0365746
0.0645692
0.487003
0.0588054
0.245034
1.49291
0.050242
0.0348017
0.00620592
0.0943282
0.881235
3.55783
1.00584
0.0659712
0.200428
0.0591784
3.5297
3.63473
0.0695429
0.0637148
1.10719
0.0653057
0.036294
1.9043
1.76026
0.100699
0.0653781
0.0336652
0.424422
1.80275
0.0411661
0.0254061
1.79325
2.48824
0.00105154
0.0469103
0.0326289
0.115406
0.382837
0.470694
0.0633642
1.29255
0.0672808
0.0974682
0.0488299
0.454482
0.0433599
3.52641
2.45627
3.36869
1.76103
0.93474
1.09812
0.0501169
3.29427
0.496293
0.0321486
0.212846
0.0484758
0.17408
0.0626532
0.0549065
0.0325282
3.26151
0.0249775
0.266689
1.48285
0.0793749
0.247053
0.345545
3.78178
0.0162425
3.69303
3.04469
0.0809441
0.0381677
0.213448
0.274909
0.181991
1.01522
4.04591
0.100322
0.0303998
0.0662691
0.989106
3.56846
0.103784
0.107098
0.0254744
0.0467358
0.08082
0.334332
0.0633733
0.0969564
0.183135
2.23029
0.0739144
0.232372
4.44984
0.0821328
0.26063
0.200252
2.01814
0.28203
0.293786
0.475761
0.070352
2.79431
2.41712
0.0529931
0.688522
1.30571
0.0666001
0.0951137
0.1038
1.16665
0.0476799
0.54421
0.0730251
1.48571
2.18521
0.692171
2.11904
0.126326
0.0780433
0.826345
0.980728
0.0982226
0.117759
0.0627022
2.835
0.104343
0.24759
0.0393523
0.133773
0.59526
0.0504647
0.0363474
0.0470874
2.74848
0.780368
0.0583581
0.132761
0.0574316
0.0584094
0.0735204
2.12097
0.123077
0.795357
2.75878
0.614621
0.00183743
1.03959
1.68701
0.762913
1.93601
0.156879
0.810172
3.19013
2.59526
0.01326
2.36366
0.0679736
4.81792
0.281544
0.0616354
0.544858
1.23968
3.75296
0.750533
0.237003
0.0671471
1.14634
2.53498
0.220424
3.2216
0.13225
0.762111
0.0680521
2.56259
0.268352
0.0290134
0.0753186
0.745961
0.0361476
0.105418
0.713107
0.0542414
2.03315
0.023989
0.0777567
1.24213
1.09896
0.110161
0.468092
1.38796
0.139442
0.533294
0.258204
0.0769887
0.310282
0.0274245
2.00278
0.624317
0.0253374
3.82139
0.0710107
0.432343
0.242172
0.0942307
0.0407957
0.405896
0.770702
1.1591
0.0354913
3.57519
0.0417037
0.52108
3.7236
0.37744
0.124711
0.955188
0.101288
0.0546787
0.00328526
1.19411
2.63119
0.0641672
3.14695
0.232724
0.0760911
1.01413
0.0848423
0.0598244
0.569233
0.114943
0.0566404
0.17381
0.0473729
0.0838802
0.122601
2.17267
2.56984
0.145398
0.0667673
0.0331068
0.595678
3.61186
0.0562497
0.0314595
0.218242
3.29491
0.0354511
0.904192
0.561992
0.0295323
0.478628
3.34686
0.0522672
0.16962
0.0627435
0.281102
0.0475864
0.0522962
0.111952
0.378533
2.61131
0.0222258
3.12039
0.0302981
2.94277
0.0791174
1.05567
0.433789
0.805251
2.16387
0.0895145
0.556317
0.136692
0.1092
0.114149
2.45847
2.44635
0.076705
0.0725
0.36588
0.113799
0.060566
0.0244484
3.88501
2.62091
0.736254
3.27364
0.126651
0.0309444
0.643167
0.174504
2.05862
0.0210175
0.0954579
0.0282754
0.0740664
0.0603088
0.0675483
0.0658475
0.364918
3.61647
2.61053
0.0650457
0.246238
0.596785
4.40367
0.0650412
3.41794
1.79071
2.71807
0.10078
0.750645
0.0342673
0.127751
0.0940472
0.0920804
0.0582039
2.00239
3.33631
0.108842
0.245763
0.714707
0.266856
2.38162
4.14838
0.0668741
0.0251055
0.073183
0.205625
0.735993
0.0258453
2.34162
0.661859
0.0809465
0.104737
0.123744
0.43999
0.132916
0.0386811
0.0752231
0.0477688
0.126806
0.540255
0.119665
3.40954
0.100309
0.0734563
0.244027
0.0939836
0.0466543
3.83669
2.44713
0.077441
2.66251
0.0613952
1.04952
0.102961
0.13664
0.0510232
0.0331979
2.51672
0.0859165
0.113973
2.54225
1.88858
0.0576198
0.0655953
0.061271
0.121309
1.37779
0.0376025
0.0648999
3.32728
0.066464
0.0619577
0.104844
2.84302
0.0732693
2.68649
1.97658
0.031334
3.3192
0.112682
0.0212558
3.72862
0.356289
0.0590173
0.00034225
0.460442
0.102285
0.144929
0.0277824
1.27456
3.34863
0.0690372
0.0285217
2.39537
0.0810378
0.79039
0.767881
0.0808592
0.689967
3.61056
0.0577672
0.676468
0.0765348
0.100845
0.12835
0.059077
3.22204
2.33624
0.0795903
0.0636867
3.0251
0.0815306
0.13412
0.107894
0.667618
1.04347
0.0295771
0.0507715
0.0642305
0.0518035
0.0292187
4.64341e-05
0.0821207
0.128032
3.2723
0.474402
0.0584621
0.827162
0.104524
0.859739
3.74126
0.885407
2.50399
0.0871165
0.00130112
0.487122
0.131431
0.0751803
2.15897
0.0920988
3.81045
2.49667
0.483957
0.0976447
4.12898
0.0301197
2.77661
0.0608436
0.0610084
2.79252
0.291913
0.862027
0.0771514
0.0554601
0.0233582
0.108981
1.37794
0.8575
0.0806082
1.72082
0.366581
2.45309
0.0216613
3.67618
0.0808654
0.0629338
0.306999
0.0700249
0.441514
2.55328
0.577776
0.0340668
1.95138
1.28902
0.195217
0.750068
0.573493
0.0153842
0.482508
2.65538
0.0589782
0.0486841
0.056016
3.11951
0.0605807
0.0204545
1.23968
0.538574
0.217947
3.74747
0.721919
0.21048
0.2164
1.17833
0.0996511
0.538753
0.0409653
0.0763879
0.0560023
3.33392
0.0853847
0.899066
2.58911
0.0242837
0.806304
3.78398
0.0791622
2.84419
0.0527403
0.505681
0.127291
0.0247337
0.104598
0.0632194
0.0396467
0.0975197
0.0763683
0.0710029
0.0794992
2.12501
0.556971
0.0762399
0.488503
0.0487237
0.0668285
0.0463482
0.0775589
0.0987249
1.51491
0.0192653
1.2015
2.44687
1.47518
0.964359
0.159477
0.110915
3.52818
0.0595953
0.539041
0.0799764
0.0470088
0.15508
3.13985
0.0915943
0.0603138
0.0489951
0.17823
0.115931
1.44593
0.518507
1.04216
2.13924
0.0608051
0.0404637
0.991921
0.062707
0.0847938
0.0316611
0.128989
0.0329676
0.0573031
0.103449
0.0198038
1.00501
2.61715
0.861514
0.108232
0.0616611
0.818424
2.67643
2.40274
0.0316576
0.0706329
0.630428
0.0498799
0.0276753
0.0963144
2.41398
0.669079
0.0472801
0.0523892
0.0950922
0.0276538
2.52531
0.0351178
0.0816732
0.0837446
0.0732651
2.50369
0.0705479
1.5144
0.0690561
0.0834794
0.0253356
0.0356261
2.68419
0.345239
0.0433032
3.38705
0.645447
0.547142
0.0298312
0.0577996
1.16031
3.61649
3.73836
0.0523716
0.759878
0.0691691
0.0602732
3.26352
2.37559
0.0244592
0.020131
0.946045
1.38816
0.0603719
0.0273543
2.55227
0.0551982
0.128893
0.14566
0.0802299
1.17067
0.0680985
0.0690428
0.0798964
1.75444
0.058822
0.0317135
0.052364
0.0944962
0.166138
0.0967176
0.424473
0.699882
0.606323
0.0911177
0.0843323
0.0582429
0.0284767
0.0777883
0.0636389
0.531109
0.0701377
0.0870867
0.204505
0.774534
0.0379721
0.025174
0.0772546
3.65575
0.0720766
0.791981
0.0197563
0.0651197
0.00546173
0.0806673
0.0727582
3.49718
0.0893753
0.0373889
0.298834
0.0599322
1.30354
0.0706992
0.0535169
2.85386
2.73685
0.0271624
2.56773
0.0626081
0.935389
3.36966e-05
2.14554
0.0386563
1.12771
0.0581589
2.84649
0.471129
1.0208
3.343
4.2217
0.0658303
3.2641
0.033508
0.0263028
0.0633993
2.7934
0.144588
0.0301689
0.607248
2.71121
1.81768
0.137086
3.54687
0.025846
0.123919
0.0525873
0.413243
0.110108
1.62057
0.0677861
0.0838378
0.0644203
0.0197285
0.126035
2.17667
0.0490718
0.0651937
4.02647
0.51792
0.0275474
0.152173
2.60996
0.0891849
0.0723751
3.10314
0.139569
3.78338
1.17563
0.0571642
0.342621
0.728834
0.0364046
0.119386
0.0460687
0.0271313
0.133416
0.114968
2.53746
0.0320718
0.796426
0.209644
0.0600191
2.67733
0.906928
0.0913066
0.0614725
0.0243409
0.033913
0.0278786
0.645965
1.64599
0.0502174
0.064184
0.078177
1.02677
0.0939404
0.782273
0.0946869
0.0503482
0.0998339
0.113086
1.0811
0.0878298
0.527342