/*--------------------------------*- C++ -*----------------------------------*\
  =========                 |
  \\      /  F ield         | OpenFOAM: The Open Source CFD Toolbox
   \\    /   O peration     | Website:  https://openfoam.org
    \\  /    A nd           | Version:  10
     \\/     M anipulation  |
\*---------------------------------------------------------------------------*/
FoamFile
{
    format      ascii;
    class       volScalarField;
    location    "1000";
    object      nut;
}
// * * * * * * * * * * * * * * * * * * * * * * * * * * * * * * * * * * * * * //

dimensions      [0 2 -1 0 0 0 0];

internalField   nonuniform List<scalar> 
10435
(
2.3315
0.984216
0.818974
1.5675
0.603866
0.480888
0.940576
1.71028
2.64614
0.584302
0.758916
1.4965
0.584891
2.31641
2.39303
1.17136
2.23517
0.510971
3.3091
2.24731
1.37684
2.04842
1.01339
2.91682
0.668961
2.05452
2.0623
0.699453
1.86148
0.523742
0.888429
0.683862
1.98294
1.83781
1.6813
1.53828
1.43106
2.15568
1.90519
3.0283
0.4779
0.929392
1.98573
1.70752
1.1925
2.93615
0.484619
1.95821
3.0524
2.74835
1.56485
0.675088
1.85003
1.83422
1.94415
1.78315
1.72556
2.10478
2.03496
2.07185
1.89527
1.14052
2.02612
0.703312
1.08497
0.755467
1.93902
2.04308
1.48319
3.0735
1.84151
2.15123
1.82632
0.827184
2.45371
2.04455
3.05299
1.04317
2.29824
2.54186
2.97417
2.69848
1.79406
1.82789
3.03513
1.91683
1.94808
1.38407
2.28978
1.78498
1.27913
1.19067
2.6834
2.22103
1.63294
1.74684
1.21053
2.3621
2.13071
0.977924
2.34598
0.452993
2.10113
1.50117
0.456104
1.6176
2.66721
2.87234
3.01665
2.62059
2.68184
0.454436
2.6995
2.67273
0.93699
2.05514
1.0151
1.73406
1.10384
1.30098
1.08336
1.95536
1.54586
1.96763
0.470737
1.96827
1.26378
2.01144
0.777511
2.28164
2.02816
0.5034
1.36674
2.44634
2.17719
1.6273
1.60914
1.58248
1.22911
2.10501
2.17116
0.994894
1.89405
0.95652
2.09149
2.22646
1.81268
0.590998
2.20194
1.2148
1.93744
1.34865
2.04269
1.10458
0.604467
1.96045
0.456723
1.37526
0.581183
0.642992
1.16671
2.34173
0.913082
2.11699
2.49238
0.875276
2.03512
1.65967
2.04035
0.840372
0.683544
1.72987
1.87617
2.25614
1.49026
0.763133
1.33097
2.07274
2.6567
1.91353
0.857431
0.482911
1.29225
1.9104
1.10465
1.88388
1.94053
1.13761
0.566966
0.812095
1.2325
1.74512
2.25056
1.37064
0.453161
1.29671
2.12768
2.07045
2.01546
1.26668
2.39681
2.08334
0.643614
2.09388
0.709831
0.755355
0.996938
1.62951
1.99485
2.15698
1.85612
0.930664
1.05005
1.90348
1.99121
2.26501
2.50741
1.78027
2.06915
2.23494
1.87795
2.11226
1.95858
2.1642
2.02888
1.47934
1.97334
2.18431
0.814672
2.09381
2.05532
1.72341
2.01586
1.50133
2.27245
2.15911
2.03095
2.08297
2.21052
0.780267
1.80725
1.96568
1.75799
1.80912
0.8126
2.40449
1.93143
1.44347
1.53547
0.927324
1.64832
2.36331
0.573422
2.18541
1.25087
0.702959
1.43224
1.13673
1.86434
2.01926
1.04061
0.712623
2.01182
2.60002
2.47672
2.06106
1.91859
0.930116
1.80716
0.763075
0.952856
1.7626
1.41834
0.694843
2.13609
1.32679
2.21753
0.587911
1.18618
1.98164
0.600167
2.08632
0.875709
2.25128
2.28367
1.71423
0.575705
1.92605
1.81955
1.87268
2.075
0.557384
1.95796
1.58693
1.92625
1.82654
2.18526
2.41275
0.596059
0.784451
2.03646
2.25474
0.812314
1.64658
0.626519
2.32191
2.14786
1.67057
0.77721
1.80725
2.65388
2.08552
1.13549
0.56697
2.24851
1.78793
1.88385
0.96068
2.03057
1.62584
0.45854
1.95543
2.17021
1.70082
2.24276
0.646852
2.22238
0.757181
2.00357
2.17464
2.31137
1.87207
1.79172
0.854477
1.33368
2.06041
1.74711
1.61066
1.78309
1.80699
2.26211
2.06066
1.84782
1.88344
1.81018
1.99428
2.02999
2.30067
1.66121
2.55727
1.78088
0.67289
2.01683
0.705451
2.51363
3.34545
0.581752
0.892783
1.82736
1.83542
1.66454
2.00463
1.76649
1.75708
1.93082
2.27196
2.05888
1.65876
2.22317
2.75138
1.97304
2.29385
0.549933
3.78086
1.68516
2.09216
2.06757
2.17892
1.84447
2.11583
2.48944
1.94268
2.11003
1.99994
1.62662
2.76775
0.657263
0.613378
3.01208
0.750328
1.913
2.12791
1.80439
1.8511
1.81006
0.797905
1.84056
0.546756
2.43344
1.93997
2.29003
1.91869
1.86229
1.03341
2.13496
1.85285
1.81836
1.74747
2.17686
2.33296
3.60897
2.40184
2.20919
1.94931
1.77131
2.01986
1.88101
0.763581
1.8334
2.14596
1.87225
1.81273
0.49474
1.64778
1.62203
4.37023
1.81553
21.5725
21.589
21.4572
21.2532
21.0185
20.7858
20.6078
20.576
20.8406
20.4688
20.517
20.4814
20.397
20.2947
20.2064
20.1804
20.2893
20.6217
19.0294
19.1052
19.1421
19.155
19.1656
19.2025
19.3091
19.5464
19.9826
17.2977
17.3926
17.4815
17.5687
17.6685
17.8063
18.0223
18.3724
18.9216
15.3453
15.4502
15.5715
15.7083
15.8702
16.0798
16.3744
16.8089
17.4574
13.2701
13.377
13.5122
13.6737
13.8684
14.1167
14.4529
14.9274
15.6138
11.1872
11.2901
11.4222
11.5846
11.7839
12.0386
12.3786
12.8466
13.5012
9.21755
9.30825
9.42187
9.5648
9.74464
9.97848
10.2917
10.7187
11.3009
7.46516
7.53062
7.61257
7.72148
7.8656
8.05997
8.326
8.69267
9.19462
5.98817
6.01694
6.06007
6.12871
6.23019
6.37658
6.58544
6.88165
7.29894
4.78916
4.78149
4.78889
4.82052
4.88162
4.98095
5.13214
5.35518
5.67822
3.83436
3.80498
3.78971
3.79494
3.82441
3.88443
3.98534
4.14232
4.37679
3.08124
3.0552
3.03402
3.02551
3.03414
3.06535
3.12735
3.2315
3.39305
2.51601
2.50431
2.48711
2.47362
2.46999
2.48185
2.51615
2.58164
2.68919
2.12761
2.12535
2.11219
2.09661
2.08549
2.08454
2.09981
2.13828
2.20867
1.88682
1.88434
1.87084
1.85261
1.83591
1.82597
1.82798
1.84744
1.89056
1.75205
1.74363
1.72636
1.7044
1.68277
1.66598
1.65842
1.66455
1.68884
1.68331
1.66958
1.64796
1.62205
1.59598
1.57364
1.55883
1.55537
1.56718
1.65484
1.63817
1.61316
1.58381
1.55389
1.52692
1.50629
1.49535
1.49756
1.65287
1.63482
1.60737
1.57513
1.54191
1.51103
1.4856
1.46859
1.46294
1.67034
1.65132
1.62167
1.58679
1.5506
1.51636
1.48691
1.46495
1.4532
1.70376
1.68303
1.65061
1.61285
1.57383
1.53663
1.50381
1.47775
1.46087
1.75214
1.72719
1.69048
1.64926
1.60739
1.56762
1.53209
1.50275
1.48172
1.8165
1.78149
1.73806
1.69269
1.64803
1.60621
1.56869
1.53689
1.51257
1.90059
1.84226
1.7898
1.74026
1.69315
1.6501
1.61152
1.57804
1.54988
3.54777
3.61942
3.70521
3.80505
3.91896
4.0465
4.18718
4.3401
4.50449
4.67918
4.86312
5.05514
5.25386
5.45806
5.66613
5.87665
6.08804
6.29866
6.50685
6.71106
6.90949
7.10045
7.28211
7.45261
7.61104
7.75764
7.89198
8.01348
8.12213
8.21961
8.30685
8.38491
8.4556
8.52158
8.58613
8.65337
8.72826
8.81664
8.92544
9.06273
9.23766
9.46075
9.74336
10.0981
10.5387
11.0797
11.735
12.516
13.427
14.4626
15.6028
16.8106
18.0335
19.2052
20.2554
21.1161
21.7328
22.0686
22.1186
3.50269
3.57471
3.66016
3.75929
3.87208
3.99826
4.13738
4.28871
4.45137
4.62433
4.80655
4.99685
5.19395
5.3965
5.60307
5.81217
6.02224
6.23171
6.43896
6.64238
6.84036
7.03129
7.2136
7.38577
7.54647
7.69482
7.83042
7.95333
8.06417
8.16383
8.25315
8.33325
8.40578
8.47305
8.53803
8.60447
8.67693
8.76088
8.86286
8.99054
9.15288
9.36029
9.62472
9.95981
10.3808
10.9037
11.5443
12.3147
13.2199
14.2536
15.3947
16.6063
17.8348
19.0141
20.0723
20.9416
21.5665
21.9098
21.9647
3.42161
3.49003
3.57157
3.66654
3.77502
3.89686
4.03166
4.17882
4.33754
4.50687
4.68575
4.87298
5.06731
5.26737
5.47174
5.67896
5.88748
6.09575
6.30217
6.50513
6.703
6.89418
7.07707
7.25023
7.41241
7.56274
7.70073
7.8263
7.93979
8.04186
8.13336
8.21538
8.28947
8.35767
8.42266
8.48781
8.55726
8.63607
8.73035
8.84742
8.99609
9.18683
9.43206
9.74624
10.1457
10.6476
11.2688
12.022
12.9132
13.9366
15.0719
16.2817
17.5127
18.6992
19.7697
20.6563
21.3031
21.6717
21.7541
3.29502
3.35935
3.43655
3.52695
3.63069
3.74767
3.87757
4.01986
4.17382
4.33857
4.51309
4.69625
4.88681
5.08346
5.28481
5.48939
5.6957
5.9022
6.10728
6.30934
6.50675
6.69794
6.88132
7.05551
7.21927
7.37169
7.51218
7.64055
7.75697
7.8619
7.95609
8.04059
8.11681
8.1866
8.25238
8.3172
8.38485
8.46005
8.54857
8.6575
8.79551
8.97315
9.20307
9.50014
9.88119
10.3641
10.966
11.7007
12.5747
13.5832
14.7064
15.9075
17.1339
18.3207
19.3978
20.2974
20.9632
21.3562
21.4666
3.13175
3.1916
3.26407
3.34953
3.44815
3.5599
3.68451
3.82153
3.9703
4.13002
4.29972
4.47832
4.66465
4.85743
5.05531
5.25685
5.46059
5.66498
5.86844
6.06937
6.26618
6.45729
6.64116
6.81642
6.98187
7.13659
7.27992
7.41154
7.53147
7.64003
7.73785
7.82585
7.90534
7.97803
8.04613
8.11245
8.18053
8.25482
8.3409
8.44569
8.57776
8.74766
8.9681
9.25408
9.62254
10.0915
10.6781
11.3964
12.2532
13.2442
14.3504
15.5365
16.7511
17.9309
19.0068
19.9124
20.5919
21.0062
21.1442
2.93484
2.98966
3.05692
3.13702
3.23017
3.33638
3.45545
3.58697
3.73035
3.88485
4.04957
4.22349
4.40548
4.59431
4.78868
4.98719
5.18839
5.39077
5.59276
5.79278
5.98926
6.1806
6.36532
6.54209
6.7097
6.8672
7.01391
7.14943
7.27366
7.38683
7.48946
7.58241
7.66691
7.74456
7.81741
7.88813
7.96005
8.03743
8.12568
8.23154
8.36344
8.53177
8.74912
9.03032
9.39209
9.85214
10.4275
11.1319
11.972
12.9441
14.03
15.1957
16.3917
17.5568
18.6241
19.5291
20.2173
20.6504
20.8165
2.70694
2.75605
2.8175
2.89171
2.97897
3.07934
3.19267
3.31864
3.4567
3.60615
3.76616
3.93574
4.11382
4.29921
4.49064
4.68677
4.88616
5.08732
5.28867
5.48865
5.68568
5.87817
6.06471
6.24397
6.41476
6.57613
6.72737
6.86804
6.99798
7.11735
7.22667
7.3268
7.41895
7.50467
7.58594
7.66532
7.746
7.83205
7.92871
8.04247
8.18145
8.35575
8.5776
8.86142
9.22342
9.68069
10.2496
10.9433
11.7684
12.7212
13.7846
14.9263
16.0989
17.2439
18.2972
19.1969
19.8908
20.3414
20.5368
2.44658
2.48877
2.54335
2.6109
2.69175
2.78606
2.89376
3.01453
3.1479
3.29321
3.44963
3.61612
3.79161
3.97493
4.16488
4.36021
4.55955
4.76136
4.96401
5.16583
5.36523
5.5607
5.75091
5.93461
6.11057
6.27792
6.4359
6.58406
6.72218
6.8505
6.96965
7.08057
7.18458
7.28327
7.37853
7.47302
7.56982
7.67262
7.7865
7.91746
8.07328
8.26351
8.49981
8.7961
9.1679
9.63126
10.2016
10.8908
11.7052
12.6417
13.6848
14.8042
15.9551
17.0813
18.1213
19.0157
19.7141
20.1811
20.4052
2.149
2.18164
2.22736
2.28705
2.36116
2.4499
2.55298
2.66979
2.80036
2.94448
3.10046
3.26699
3.44274
3.62661
3.81781
4.01516
4.21783
4.42428
4.63191
4.83891
5.04388
5.24548
5.44268
5.63432
5.81912
5.99638
6.16519
6.32516
6.47609
6.61846
6.75338
6.88194
7.00533
7.1253
7.24376
7.36437
7.49016
7.62267
7.76708
7.92934
8.11696
8.33855
8.60439
8.92888
9.32755
9.81429
10.403
11.1011
11.9133
12.8414
13.876
14.9905
16.1399
17.2686
18.3153
19.2169
19.9213
20.3946
20.6306
1.96343
1.88385
1.82206
1.76822
1.71873
1.67286
1.63123
1.59529
1.56711
1.54949
1.54608
1.55997
1.59245
1.64307
1.71073
1.79567
1.89901
2.02099
2.1608
2.31691
2.48803
2.67436
2.87751
3.10127
3.35248
1.86329
1.83762
1.79721
1.75222
1.70646
1.66203
1.6208
1.5848
1.55643
1.53859
1.5344
1.54649
1.57644
1.62483
1.69177
1.77736
1.88155
2.00374
2.14291
2.29777
2.46762
2.65284
2.85534
3.07893
3.33043
1.82821
1.80474
1.76977
1.72863
1.68494
1.64135
1.60023
1.56396
1.53511
1.51654
1.5111
1.5213
1.54905
1.59552
1.66123
1.74611
1.84948
1.97014
2.10682
2.25809
2.42351
2.60355
2.80001
3.01637
3.25814
1.80793
1.77906
1.74284
1.70168
1.65804
1.61429
1.57275
1.53585
1.50618
1.48649
1.47951
1.48774
1.51326
1.55751
1.62111
1.70378
1.80438
1.92131
2.05286
2.19762
2.35513
2.52592
2.71168
2.91558
3.14242
1.79104
1.75612
1.71642
1.67323
1.62825
1.58341
1.54083
1.50282
1.47189
1.45069
1.44186
1.4479
1.47092
1.51242
1.57293
1.65192
1.74787
1.85884
1.9828
2.11828
2.26481
2.42294
2.59439
2.78225
2.99127
1.77441
1.73378
1.68999
1.64393
1.59682
1.55025
1.50609
1.46652
1.43392
1.41085
1.39987
1.40344
1.42362
1.46178
1.51828
1.59228
1.68189
1.78487
1.899
2.02276
2.15562
2.29816
2.4521
2.62052
2.80836
1.7572
1.71133
1.66354
1.61439
1.5648
1.51609
1.46994
1.42842
1.39382
1.36857
1.3552
1.35605
1.37304
1.40733
1.45899
1.52683
1.60866
1.70189
1.80431
1.91421
2.03103
2.15524
2.28844
2.43371
2.59655
1.73849
1.68871
1.63751
1.58542
1.53323
1.48212
1.4337
1.38997
1.35318
1.32562
1.30973
1.30773
1.32128
1.35126
1.39738
1.45807
1.53085
1.6129
1.70199
1.79625
1.89498
1.99829
2.10722
2.22471
2.35628
1.71919
1.66687
1.61302
1.55819
1.50335
1.4497
1.39885
1.35288
1.31403
1.28432
1.2661
1.26137
1.27141
1.29677
1.3368
1.38952
1.45217
1.52185
1.59618
1.67335
1.75235
1.83284
1.9145
1.99792
2.08744
0.504194
0.520835
0.42001
0.170922
1.1183
1.07856
3.89696
1.98957
0.411363
13.2102
0.224636
1.67122
10.8134
0.734292
6.42027
2.63959
0.29491
0.165627
19.2829
0.429714
5.02676
5.25382
0.251321
1.77319
1.821
2.1162
1.88156
1.19672
0.365363
0.264113
19.4268
2.30051
0.362826
8.78527
0.255762
1.41332
7.92787
6.39082
8.30735
2.8248
0.312128
0.15222
3.86128
2.00218
1.51102
7.36757
0.242037
0.25086
0.31734
0.370533
0.236866
0.285834
9.12998
0.165097
3.89766
0.414443
0.725161
7.90015
0.724371
0.224459
1.44267
0.424484
1.08091
4.04641
2.0296
1.76184
4.47568
1.53466
10.4799
0.363577
0.414623
5.87762
1.13147
0.582904
1.98556
5.48195
1.1483
0.267847
1.4031
0.176253
8.87716
1.69035
2.28988
0.213766
1.24761
1.41851
1.33806
0.270255
0.363899
1.58554
1.60642
2.46128
9.48809
1.68622
1.05696
0.22694
2.04058
0.225317
0.347314
0.22467
0.952461
0.318796
0.981358
6.49067
0.820275
1.29483
0.25769
8.75575
0.449134
0.266547
4.65071
1.12813
0.271921
6.58248
8.95251
0.320911
0.350486
3.09396
10.7256
0.671232
0.0566109
1.14571
1.77305
1.68918
0.358332
3.64808
0.291667
0.70044
0.890558
0.251712
2.21197
0.633736
0.360094
8.47134
1.36082
1.29524
1.52074
0.866988
1.58685
0.358545
7.1447
7.95999
0.227486
0.0798743
0.342108
2.98846
0.186005
2.07692
2.54841
0.257925
3.41422
0.969961
0.183511
5.60817
1.77758
0.212424
1.12487
3.12884
1.80596
4.39131
3.99262
0.411988
3.32262
0.229419
6.0961
0.222124
0.842084
1.89221
3.69124
1.00868
0.666762
4.39097
1.57105
0.217176
4.59398
1.2619
5.53155
0.359267
0.277588
6.9873
7.56635
2.1577
9.66807
6.75576
1.70109
0.856997
0.225103
0.467971
0.37408
2.14301
0.241252
0.227521
0.266007
7.83182
5.92504
0.374761
1.98951
5.12142
0.331495
0.430136
8.49322
5.00816
1.615
2.10738
1.67245
7.24003
3.8989
0.949064
0.32998
3.57765
0.855583
1.52878
7.88241
1.56317
4.41155
0.300695
0.869337
1.76591
6.44338
1.46214
0.749378
0.175512
1.59784
0.419142
0.47022
0.338351
1.77406
0.300079
0.38595
1.10641
0.209051
1.45561
1.94984
1.41973
8.18562
10.6711
2.48798
0.935552
6.9597
5.69338
15.3731
1.41149
5.57906
1.52242
1.1947
1.57493
2.60004
1.53151
2.64777
4.59174
0.327004
1.3227
7.69846
0.329227
1.10602
1.67306
0.266388
1.30356
1.97856
19.5816
1.68951
0.826289
1.97961
1.87223
0.724086
1.50896
6.55133
0.209151
3.74083
1.89737
4.50559
0.278152
0.439347
1.56415
18.2661
0.213782
3.25126
0.388519
0.834106
0.245397
1.8539
3.70113
1.55023
7.31114
0.272379
1.69316
1.30674
0.351117
0.249671
0.244112
4.88568
3.4782
0.0960249
0.250422
5.72746
0.305785
0.30392
3.14856
4.43013
0.252953
0.242
4.13575
1.91836
2.16999
0.304771
6.05351
4.557
7.44524
0.354892
1.72855
6.05109
8.89029
0.376264
0.998645
0.378742
7.75411
0.25082
7.09394
1.79493
6.2318
1.80749
3.1792
1.80659
18.9248
1.32258
1.48437
0.350555
8.53695
3.43261
7.61665
6.26622
6.01679
0.68033
12.2081
0.274741
1.46457
2.14353
2.42308
0.199503
1.6473
1.50742
1.72
0.231042
9.37044
0.794246
0.83473
0.895836
1.04039
1.24394
0.230929
0.388224
9.20519
0.155497
2.07527
0.253142
0.503402
4.62025
2.15231
5.25625
0.233568
0.337023
0.244472
3.96577
0.34035
0.157623
1.31589
3.63247
0.257757
2.01704
0.371291
8.04831
5.51327
0.379869
0.340614
10.7127
1.16298
0.915478
7.38853
3.48084
11.3682
0.306302
3.8978
0.35605
2.09134
2.14738
4.68862
6.28929
0.448366
0.227288
0.240907
2.44418
6.95026
1.4562
0.357372
7.15191
15.8787
5.69501
0.357732
3.06947
0.36344
1.94785
3.93297
1.21977
0.372171
1.73708
0.116026
4.87995
1.46338
4.07947
14.8435
0.360735
1.9314
0.247431
1.5579
2.84687
0.692812
0.304078
0.231604
2.9764
2.50642
6.15981
3.73255
1.55341
0.994166
3.90906
0.250107
0.125381
1.94214
9.89928
2.44214
2.04046
1.53949
1.56383
1.53695
4.49176
3.50411
4.76671
0.0627523
1.12486
1.18604
4.6894
5.71293
0.257243
2.93874
10.0771
0.36845
1.01136
0.372961
0.865699
1.35673
0.351532
3.78744
3.17792
0.25801
9.17969
0.36432
0.229366
1.47816
1.63426
1.01337
3.64277
1.69451
0.352132
7.8634
0.247769
1.54418
0.786348
0.425384
4.63187
0.231301
1.51569
1.37969
0.245686
1.11601
1.66006
9.45121
1.65474
1.30364
2.32556
2.66633
4.28991
8.40955
0.129917
1.6912
0.211937
1.15842
1.76664
5.76724
0.352872
6.61886
5.85298
3.03864
1.00172
0.364261
1.98654
0.647408
5.92219
1.76091
8.15405
0.371503
3.9764
4.66244
1.7491
1.37093
5.74981
8.43614
2.03547
2.17903
4.65219
2.4004
5.29358
8.37185
4.59229
1.73227
0.731495
0.257924
0.311698
0.297909
1.12884
2.02402
11.1335
0.244729
0.41854
0.260484
8.89386
6.46415
0.247627
0.333743
7.05933
4.75927
1.24866
6.81937
0.244278
0.409019
0.683663
3.18853
3.90453
0.280992
0.331525
3.15176
6.18358
0.275427
5.17011
0.263983
0.183434
0.407511
2.67262
0.682882
1.80947
0.37789
8.05894
8.23691
0.928612
0.333128
0.304114
0.255198
1.71048
9.25128
11.122
0.329264
8.83645
8.51972
3.99682
10.143
0.264718
15.6198
2.21576
0.816003
2.42552
1.69199
0.374663
6.40579
7.20011
0.721942
0.997596
0.274458
0.237355
0.332695
0.741572
1.6993
0.410415
9.97057
4.86625
10.6587
2.02791
0.355275
5.14771
1.04278
5.75421
4.92222
1.16437
1.36488
4.01283
5.12183
8.73987
0.693081
9.24243
0.295964
1.13095
2.27826
0.233287
1.23435
0.179519
1.89561
0.744864
1.15833
1.68077
9.59061
0.397911
3.54684
4.0951
8.34365
1.64307
3.61044
1.19211
7.78531
1.89977
0.932541
0.400541
4.55906
1.69971
3.11849
10.1511
1.22388
1.82426
0.223981
0.241931
1.11854
0.356653
1.97007
1.80652
1.41985
0.398824
3.0536
0.625433
6.29416
1.70453
1.40585
0.930753
4.74606
2.28252
0.755713
1.756
4.98053
1.08805
2.04232
1.64482
3.07751
0.224798
5.26475
2.18433
0.345565
13.4432
0.138585
6.51651
10.8577
0.238499
20.9661
2.66126
3.20534
0.328364
0.212871
0.22049
0.0649606
1.45302
1.95136
0.323328
0.38421
1.5915
9.49219
1.84858
15.858
1.19199
0.237011
0.147061
2.77174
8.53783
1.4303
7.98557
10.1698
0.42026
8.23361
1.75672
2.3535
6.25321
0.839661
7.19946
0.345053
0.272068
2.45903
5.30747
2.68909
0.230904
2.0628
9.29131
4.4616
1.82552
5.07797
1.67313
5.53419
0.714496
1.57965
1.27383
5.90262
6.5571
0.232194
5.88929
3.5664
0.251462
5.80578
0.355348
0.253593
18.5323
1.1814
1.59831
0.117926
2.83572
1.85457
2.66038
1.49584
10.9383
13.8572
12.5055
1.71389
3.96741
7.34128
1.87382
3.64841
8.16238
0.316548
14.6509
0.287995
3.0614
0.359169
2.67934
0.326255
0.247768
0.2396
1.50722
2.41883
0.114305
1.59949
3.02028
4.97541
0.405914
10.0942
1.47772
3.0702
1.82173
1.93512
1.73327
0.237726
0.390903
2.10335
3.45422
5.14832
9.62845
0.317016
0.0484384
4.46005
1.67797
0.146807
0.443151
4.26086
0.249057
5.36615
1.49402
5.3859
0.459327
0.142298
1.5905
1.15437
0.898137
4.06681
3.75896
1.7006
2.36315
1.22209
4.11394
2.60378
1.53096
2.75567
0.245955
5.90334
5.35729
0.481971
4.24463
0.417666
1.32462
11.7042
7.95693
3.59695
4.16018
0.168398
6.68775
0.233554
0.381833
2.41518
1.57203
2.69679
6.26915
3.68971
0.381787
8.52028
1.20377
9.01264
0.250239
0.2784
1.91289
1.5197
0.372534
0.418526
1.88378
1.30989
0.372431
1.49659
0.408198
0.375315
6.79274
1.84789
0.395881
0.388597
0.393852
6.09507
3.80613
0.34003
2.86549
7.9427
4.06094
1.75612
0.633671
2.53512
1.34946
1.84279
0.390162
15.1401
2.73194
0.330307
13.405
5.72354
1.02033
3.41101
4.89666
1.21811
5.80945
5.7986
9.99106
7.9462
1.4118
5.2364
0.270849
1.84814
6.23754
2.89271
6.95552
0.38621
0.416867
0.499602
8.85969
6.18969
0.128686
1.61368
0.600503
0.208319
3.889
0.705828
3.07292
0.0739858
6.26541
2.3302
0.272042
0.276232
2.10586
0.237977
0.230552
0.239282
12.92
0.360232
7.49307
8.47302
4.10623
1.53323
0.584957
0.859743
1.69134
1.47661
2.35449
0.389213
0.895061
0.813487
0.3701
1.08407
2.17216
4.98297
0.376301
4.06917
10.5791
1.57227
0.250587
0.249937
6.35264
6.70773
0.364739
1.35535
0.889026
2.54414
0.28431
4.62105
1.05523
1.04287
0.371315
3.19505
4.62989
0.413371
0.0762501
0.68001
10.1943
0.251615
5.14104
0.310291
0.326773
5.66205
1.34962
1.92518
1.46429
0.421452
7.72179
4.24803
1.95724
1.81744
0.365908
2.97305
0.232908
0.880848
0.263216
7.86357
2.71103
13.2993
1.39098
1.95926
0.408783
0.336096
1.1604
4.18594
2.25883
0.88356
4.94842
11.1388
5.51056
8.33862
0.32869
1.04544
1.47071
4.73021
2.45724
4.45434
1.56394
0.324582
2.91325
0.898614
2.86551
5.06633
0.758192
1.49481
8.5241
6.10415
0.659067
1.09197
6.41432
1.32854
1.64139
0.267359
0.425376
0.405658
3.51188
1.66297
3.86722
0.741808
0.344071
1.01952
0.693093
0.281228
2.90596
1.81533
1.38104
1.81886
0.328048
9.96521
1.32672
0.514134
3.39599
3.59958
0.357551
1.52774
2.34249
2.29628
1.51142
2.80006
0.262895
7.38532
1.67004
0.277634
1.37213
0.234995
1.92767
0.337956
1.45676
1.81696
3.10702
4.66958
6.11402
0.647206
10.2019
0.772896
3.76306
10.4963
1.33722
0.420738
3.33159
0.253275
3.6819
2.72472
4.921
1.30097
0.238613
0.359104
9.11684
1.62975
0.557442
4.35517
0.662241
0.331906
0.524374
2.01708
3.53268
1.47328
2.35695
0.26098
6.31043
10.626
2.0031
4.19184
3.05642
1.08288
0.242357
0.161021
2.44188
2.15912
4.98076
0.328669
1.17911
1.12732
2.58812
0.370273
0.244159
0.235739
1.60142
1.69652
1.21442
0.319904
5.61288
0.40226
1.79298
1.80709
0.357239
1.83372
2.53075
0.898022
11.7499
19.9641
0.715353
0.390993
16.4262
0.371784
5.00373
2.00407
1.36007
11.0197
8.39274
1.32171
0.461135
5.83175
1.18839
3.8914
0.337312
0.216736
4.24572
2.59485
6.24324
0.966575
0.184643
1.22784
0.242529
2.01773
11.8822
10.4422
1.64128
1.76912
5.32916
3.00038
1.33692
0.170592
0.620656
6.82231
0.365415
2.22491
11.6982
1.15126
13.6472
0.344579
0.329224
5.11551
12.0495
1.57025
4.30077
0.638547
0.356408
0.379488
1.10441
10.1697
1.29059
1.46966
0.396064
1.79938
0.871488
0.415743
0.271627
0.127234
2.09505
1.89802
7.76032
1.63431
9.99271
2.32839
3.39325
1.65356
8.57775
1.3384
7.35065
1.49368
0.254735
0.350717
0.32649
0.435332
4.15754
0.18563
2.44464
0.326839
7.62554
2.14493
1.5373
0.966019
1.13536
3.84824
1.69403
0.784053
0.388726
1.63245
1.21677
5.05032
0.673188
1.61368
1.55944
0.234863
0.330897
0.258866
0.227897
0.829559
1.17161
1.55284
1.64235
1.51538
2.8091
0.384139
8.28958
1.16756
4.61633
5.51151
0.334199
2.85636
1.73034
1.34007
3.7063
1.43599
1.27587
11.9584
0.818183
1.57218
0.342237
8.02026
1.687
0.349009
2.38086
1.52509
1.67313
0.271096
1.67975
1.2619
11.0338
3.557
0.307323
0.282302
1.2855
3.66492
6.15095
5.55068
1.76542
8.21703
7.23248
2.42004
9.92618
10.097
5.21286
0.367477
0.695094
0.345327
1.14366
1.50702
0.866271
2.50009
1.14927
5.52293
1.15292
0.237799
8.29706
1.70404
1.48212
6.31276
2.40228
1.35962
1.00025
3.92843
0.308775
0.768993
12.0729
6.97941
16.7439
3.43059
1.97394
0.340705
7.17657
3.78023
0.368768
1.1322
0.108338
2.00686
0.38739
0.392773
0.371559
1.42323
7.69242
0.321505
0.22884
0.328347
0.295136
6.29948
0.404267
0.312085
14.5127
9.96132
6.10532
0.253189
8.1478
1.16223
4.06468
3.51537
0.366169
0.671388
0.316906
5.41745
0.400412
11.064
0.312308
1.91852
0.813395
2.1577
0.584495
1.02413
1.21086
0.31406
3.45679
0.3183
0.480945
5.16874
4.12943
3.18282
1.67859
9.45821
6.00818
5.35555
6.10176
0.618821
10.475
1.36808
1.98555
0.371102
8.21328
1.31237
0.319926
11.9125
5.97792
0.602784
8.52511
1.2622
5.92706
4.13628
4.38737
0.935584
0.243262
1.78454
6.61284
0.279156
3.18149
5.47187
4.81723
4.53579
3.22296
0.108244
2.61862
0.37032
1.5042
0.373964
1.66666
2.09831
7.52451
4.46705
1.58783
9.43398
7.58586
4.15526
0.609361
1.20768
5.48898
7.54771
0.361845
0.342331
1.50766
9.03206
1.36037
9.01303
0.254792
1.62671
0.835283
1.21022
0.369281
0.819503
6.46938
9.76809
1.84877
7.24801
0.324515
1.67985
1.45528
6.91829
0.54046
1.3041
2.84857
1.14632
1.37117
0.358801
0.247744
0.368315
1.56009
0.224954
5.54971
6.63231
3.80041
0.452058
0.340588
0.868125
3.8422
4.59415
5.25224
3.56238
0.303496
0.273357
9.80713
5.75824
1.48366
5.74866
1.62882
0.538726
0.303361
0.23226
0.89955
0.360471
6.08416
1.67874
8.66652
1.74713
0.344148
0.463952
1.70543
0.869331
2.90734
1.58308
3.91867
1.44269
3.39688
0.337872
0.320679
12.3975
1.55659
2.33641
0.411899
2.46275
0.317385
0.397188
0.22628
6.42775
0.841606
2.21958
6.79629
7.14675
1.63738
20.478
0.338044
0.333269
7.79952
1.1312
0.315596
1.68494
0.358732
0.250198
3.99943
0.848091
3.43204
1.13209
8.34837
1.96407
0.337788
1.90172
7.77441
0.760305
4.82238
1.5384
4.926
1.28956
8.36891
1.23368
1.59549
7.0334
7.50973
0.334619
2.69292
3.753
1.59825
0.701131
2.82612
0.402197
0.361134
2.77176
0.348789
13.193
2.22794
6.17335
5.58923
1.75395
1.5361
0.296184
2.39087
4.58603
0.329785
0.324672
13.3791
9.68029
6.61883
5.71408
4.21096
0.783661
3.18844
0.368837
1.48221
13.1106
5.90177
0.362069
1.6773
0.336086
0.363278
0.819667
0.354142
5.44692
0.492094
0.336005
0.988786
16.7927
0.00930804
8.87697
0.889015
5.49896
1.90349
6.30725
0.287515
0.865378
1.44923
0.260764
9.82247
0.452266
6.28058
5.0898
2.87097
0.25743
17.1767
8.58737
7.94267
3.10813
6.24899
1.81563
0.386562
0.27955
5.1411
11.0781
0.324838
4.66507
4.73128
1.67795
2.37239
7.5796
1.73323
1.098
11.2949
3.10723
1.56034
0.000267421
0.644643
6.94351
0.286221
9.05809
1.25438
4.29739
1.11333
2.33831
0.25496
0.638026
0.239142
0.646781
0.0965845
8.1262
6.55806
5.14364
0.320625
2.83273
0.361296
0.340577
10.9405
6.62514
0.242402
1.30794
0.286404
0.926352
2.34298
0.347995
1.28581
2.6398
3.86755
2.74512
0.960471
6.43024
5.87112
3.33419
7.29951
0.44758
1.49421
0.351741
1.74554
0.34156
4.95907
5.26483
1.71145
10.4126
6.91073
0.224657
3.33496
1.22003
0.369448
3.51063
0.558302
0.368907
4.339
0.376386
2.8302
0.249127
9.77905
0.578548
0.951823
0.364008
1.73393
0.583468
3.20049
4.96283
1.03678
0.318756
7.90965
1.5029
1.0723
4.27919
0.795336
2.7358
0.617326
7.38373
2.07982
0.283774
1.40745
6.76815
0.348492
1.88379
2.56567
0.335486
7.91408
0.221391
3.90449
2.22572
4.56487
1.33328
2.82104
10.5499
0.688245
1.87533
2.70605
0.827739
1.19668
0.362055
4.09798
1.95473
1.78327
1.17331
1.78018
1.90652
5.29425
2.92231
5.665
0.734003
4.5293
0.365088
5.42201
1.06614
0.591535
5.56296
0.253159
3.73003
1.81681
4.78846
1.55796
1.51016
0.222017
2.36367
5.76981
1.26514
1.11177
0.681132
5.10878
2.0872
5.51279
0.355216
2.22641
2.17849
0.19112
5.4763
1.45389
0.729083
0.867531
2.16716
15.4475
6.37812
0.599426
3.77665
0.363006
4.69848
0.749247
9.77347
4.24639
0.227404
0.302362
1.24194
2.79604
2.25816
3.92169
1.85516
0.690176
0.247701
2.68621
1.65663
3.13567
4.18496
0.920225
0.353251
1.84655
5.24991
1.64396
2.98769
0.311634
8.62192
5.63618
0.601887
0.800379
1.93949
1.4949
0.278447
2.76379
1.51313
0.332227
3.31381
2.85653
1.91511
3.36985
4.70155
0.349424
0.314572
1.18448
0.690291
8.21745
16.2179
0.282905
0.289507
1.76035
0.47686
3.63442
4.15666
9.56599
1.60669
0.286573
1.8725
0.512792
1.69034
2.82603
0.203461
9.19662
5.74155
2.46358
0.424124
8.92285
1.58785
1.02627
8.77024
1.32139
1.11373
7.07612
4.2358
2.26966
6.91553
7.03892
10.9038
0.821014
4.56745
1.67355
4.39762
3.41301
1.19003
0.649898
0.198538
1.71876
1.75591
2.40855
0.262126
1.36098
2.43451
0.200518
11.8911
0.118708
4.76763
8.48015
0.25275
5.54462
1.0961
1.14416
8.79936
3.743
1.91874
4.17184
0.361922
0.373236
1.83169
0.303982
7.10656
2.85202
0.0417935
0.365288
2.17895
5.18504
2.88275
0.315591
1.56763
6.87139
0.225829
0.251414
0.941468
0.355521
0.917788
2.01647
1.28333
0.296963
1.743
0.910575
1.27832
0.213895
0.383041
6.22851
0.34839
1.97337
4.38507
1.37082
2.24505
1.7975
5.47397
4.29362
2.25664
9.85458
0.721951
5.34834
0.359132
3.34456
11.4605
0.254095
2.47512
1.46259
1.48197
0.2365
7.17527
5.11772
0.318232
5.23003
0.404636
4.46794
3.55657
1.46882
0.591765
0.639964
5.40479
3.80701
1.9015
5.29876
1.6751
0.369272
1.45798
8.13302
1.03639
0.561153
0.284541
3.10776
0.9336
5.13404
1.8757
1.29718
1.63427
7.36668
0.437216
3.62337
3.71593
3.09709
5.68891
0.937968
4.79021
1.51367
0.543196
8.17322
7.72343
4.82469
0.751761
7.49945
3.80332
0.0452669
5.81093
9.64846
2.85345
2.17023
1.83199
3.47374
1.17549
1.1346
4.84544
5.74088
0.361823
0.35957
0.296373
1.09567
0.0691488
1.73037
5.72616
1.56762
3.89934
0.273033
9.04919
0.217038
1.91492
0.210388
2.53709
1.45226
2.53099
9.65692
0.369453
4.42156
0.354138
1.5728
1.16128
1.15685
0.231496
4.45544
1.89286
1.4285
0.491878
4.92851
3.58736
2.25966
1.49761
1.15871
1.18662
0.225939
6.18077
3.12959
8.47118
3.34178
6.70817
0.331734
0.101804
0.693736
3.65134
3.69086
0.944217
1.16447
0.24184
1.20476
0.580874
5.35922
0.971477
1.37087
1.45608
1.69641
5.65359
0.26853
0.596454
3.04106
5.65978
0.267959
1.92485
1.90301
0.843754
3.5682
0.913615
1.09091
10.1265
4.51228
18.9608
1.47161
7.0768
0.372831
5.54194
1.03663
1.87728
10.7348
0.245817
0.635017
1.7877
1.92791
4.42309
0.522602
0.31245
5.09556
3.38789
8.9832
2.90854
0.400281
0.243058
0.373055
0.250157
0.219885
0.750504
1.65045
0.639405
3.11847
5.41226
2.18149
2.82896
1.27795
0.235152
5.26476
5.90822
0.395065
0.232557
0.553976
4.1183
1.38906
0.354406
0.28417
0.722271
1.88728
1.64001
10.4048
1.78243
5.73639
2.15827
0.0693868
3.51936
1.13561
1.03676
1.66829
4.06321
8.83498
2.69596
0.344554
1.47901
4.74861
2.10661
3.99039
2.04135
0.305381
1.94593
0.342602
3.24125
3.30711
5.20721
0.27807
1.42886
2.60128
3.18335
0.300997
1.00441
1.06235
10.73
0.131248
1.13837
0.764895
0.214911
2.74564
8.53553
0.399621
3.54472
3.05091
0.227211
2.68301
6.07771
5.07412
1.22247
5.49622
11.5169
0.219319
12.485
7.66902
2.50519
0.236773
6.47188
8.80287
4.27524
1.54282
11.4902
2.37292
0.812215
3.61102
7.10843
0.344539
4.85371
1.73796
3.25806
0.355432
2.98493
0.229511
0.37739
16.8402
0.159389
3.5163
2.92023
0.582752
4.33522
0.501422
0.800849
1.42852
0.232256
0.230136
7.25156
1.75979
1.27562
1.68357
1.41304
0.40466
1.20748
5.64103
1.20565
3.30326
0.572615
4.62445
0.366488
14.6602
1.18753
0.346132
0.414281
2.97323
1.65185
1.98271
0.961284
2.29194
1.41516
1.92975
4.92899
3.73082
1.47112
3.85802
0.328093
3.96072
1.32308
3.40922
0.242059
0.35761
0.369135
0.371417
0.226351
2.02969
0.0584808
4.50437
1.7556
2.137
0.309998
1.21144
2.01619
0.758198
11.3984
7.52202
4.62227
3.5388
2.5584
1.95294
0.39089
0.255364
1.07048
0.54408
0.219106
1.61144
1.43213
1.75561
10.1201
0.578746
1.45813
5.41396
7.83845
2.2137
1.63802
1.75365
0.832702
0.326517
5.04424
0.310208
0.359489
0.365275
0.368175
1.2821
12.3485
0.233505
0.572785
2.24222
1.3289
7.77609
1.77875
3.66052
0.376601
0.292489
1.2687
15.7657
4.07224
0.29008
1.82945
0.366313
0.372555
0.335972
0.365488
0.225319
3.47104
0.351878
7.35081
8.55107
0.688726
0.336487
0.266118
1.10979
4.01295
0.353461
16.0342
0.349564
2.47812
0.236068
1.64535
2.03517
0.348584
6.75826
0.376078
0.920914
0.261516
2.71939
4.52713
1.18047
0.849144
0.860185
3.37297
1.92962
0.675729
1.97773
2.56022
1.06932