/*--------------------------------*- C++ -*----------------------------------*\
  =========                 |
  \\      /  F ield         | OpenFOAM: The Open Source CFD Toolbox
   \\    /   O peration     | Website:  https://openfoam.org
    \\  /    A nd           | Version:  10
     \\/     M anipulation  |
\*---------------------------------------------------------------------------*/
FoamFile
{
    format      ascii;
    class       volScalarField;
    location    "1000";
    object      p;
}
// * * * * * * * * * * * * * * * * * * * * * * * * * * * * * * * * * * * * * //

dimensions      [0 2 -2 0 0 0 0];

internalField   nonuniform List<scalar> 
10435
(
0.00224296
0.1371
-10.0065
-2.23062
-5.12281
-9.08002
-10.1778
-9.91951
-10.0828
-9.75303
-0.812069
-5.97085
-10.1057
0.469703
0.59318
-9.55777
0.277998
-10.0621
-10.5329
-0.31055
-10.2753
-2.51201
-9.73184
-8.44206
-9.39072
-0.719646
-1.24309
-10.3264
-1.28884
-9.56597
-8.49209
-1.39769
-10.2676
-0.453739
-9.25708
1.00059
-9.14033
-2.42476
-0.0326863
-9.25526
-9.83038
-10.456
0.606283
-1.08182
-8.93247
-9.28525
-9.5883
-0.137335
-10.0524
-3.15987
-9.92015
-8.39733
-0.580788
-1.38984
0.375763
-1.39802
-8.90588
-1.20215
-0.272348
-9.01643
-0.402044
0.490481
-0.890338
-7.53982
-9.30842
-9.96868
-0.381184
-0.653504
-10.3011
-8.0016
-0.664464
-1.40669
1.10779
-9.75797
0.560493
1.02846
-6.78947
-10.4313
-10.3808
0.398748
-4.71425
-0.138339
-0.336718
-0.892398
-5.54851
0.927599
0.555856
-0.825971
1.06494
0.301173
-1.36068
-1.90742
-0.4432
0.847969
0.0143025
1.16089
-2.93964
0.980305
0.41287
-3.6184
0.351378
-6.18212
0.751671
-0.377125
-7.14772
-1.62647
-0.803337
-3.88529
-6.51629
0.439154
-2.44218
-5.16387
0.128907
0.209882
-2.27612
-1.83966
-4.37215
0.750755
-0.585398
-4.45704
-5.02014
1.18922
0.521886
1.41443
-2.0172
-0.497983
-3.70725
1.2911
-4.54416
-1.87432
1.46571
-1.1925
-9.61767
0.401284
-1.06823
0.908155
1.42834
-2.98603
-0.140947
-1.26351
-0.759203
-8.83471
-0.0748316
-6.86379
-3.25054
0.964492
1.52976
-8.16134
0.51066
-7.4663
-0.207148
-8.73885
0.101787
-7.62222
-8.94504
-0.336019
-3.01596
0.235369
-9.35444
0.0304109
-8.1425
0.357262
-1.72678
-5.69379
0.735256
-5.87158
-10.0346
-4.61748
-7.29843
-7.06244
-9.38926
0.456314
-2.37053
1.06303
-7.30994
0.489924
0.77539
-0.0382861
-1.80823
-0.62558
-0.29652
-8.74999
-6.47991
-0.63384
-9.02353
0.627305
0.556382
-10.3409
-5.84101
-7.8648
-5.85054
-0.130143
-0.538757
1.28938
-4.07198
-10.3272
0.776988
1.02374
0.0302828
-9.41362
1.12883
0.180179
-10.2405
-0.845069
-10.1202
-3.04252
-1.12425
-3.80634
-1.11381
-4.10854
0.313577
-9.61751
-6.28366
-6.20557
-0.62901
0.646417
0.474236
0.128018
-2.9521
0.265269
-0.714038
-0.290197
-0.15737
1.25004
-0.791808
-9.60313
-2.4542
1.05344
-8.52568
1.00711
-0.208388
-9.77441
-2.57876
-8.36554
-1.71471
0.163982
-8.7615
-1.71814
-8.09554
-9.07162
-0.614001
-0.438126
0.160681
-1.34324
-2.5486
-10.2522
1.28425
-10.4995
-4.74133
0.830456
-4.78015
0.632458
-10.094
-4.93558
-10.7797
-5.7795
-6.46676
-10.8616
-0.312852
-0.659797
-11.071
-8.87616
-1.27034
-7.01627
0.480909
0.286794
-0.200533
-9.45805
0.089886
-3.82686
-10.7577
-11.6015
-11.5113
-9.87958
-3.51713
-5.26548
-0.564749
-3.95157
-10.1997
-11.3751
-9.88376
0.224706
-10.6215
0.660518
0.562892
0.346228
-7.08776
-2.11357
-0.725773
-0.982603
1.42538
-0.517559
-1.26618
-11.3446
-1.73949
-5.71309
0.817057
0.271711
-2.92731
-9.20163
-0.285595
-7.44126
-10.6392
-6.05167
-2.12453
0.730311
0.694638
-7.95568
-9.45359
-0.635984
-1.29921
-1.26933
1.07826
-7.24604
-9.62298
-6.50275
0.0595699
-8.17873
-0.418836
-5.33039
-8.02181
-2.1812
0.369509
0.168297
-10.8783
-10.0396
-4.61371
-10.6331
-0.142546
-1.30111
-9.77533
-0.969718
-0.589813
-10.2512
-7.78634
-1.02261
-0.856529
-2.2945
-0.170295
-2.18385
-5.63247
-0.446382
-0.125802
-4.83752
-7.02263
-1.24528
-0.84195
0.489743
0.375935
-10.417
-0.385125
-9.62968
-4.56813
-10.5729
-11.5361
-11.2194
-10.4435
-9.70977
-1.35778
-0.554043
-2.34068
-0.183845
-1.53556
-0.28491
-2.19243
-6.11759
-1.13441
-6.67778
-0.688961
-10.3692
-0.231569
-6.68865
-10.2556
-11.531
0.35558
-6.64407
-2.28587
-1.83352
-0.641593
-0.96925
-8.60737
-1.6792
-10.923
-0.572565
-10.596
-11.0966
-10.5336
-10.4146
-11.3592
-10.4718
-9.47486
1.28516
0.103865
-1.04811
-0.115086
-10.2875
-0.878282
-10.2241
-7.12836
-1.24421
-9.13522
-0.0860064
-0.561171
-9.74182
-2.7537
-10.6813
-7.71014
0.347927
-0.892761
-4.90886
-9.55365
-5.30788
-0.643154
-1.12766
-1.3742
-0.198246
-0.900622
-10.1748
-3.82702
-1.7152
-1.35093
0.28672
-9.98677
0.603601
0.805291
-9.8883
-0.212351
52.4054
15.5045
26.1548
18.524
20.1855
17.139
16.3857
14.7997
11.4841
44.0952
13.7118
21.2844
15.8167
16.8345
14.806
14.1834
12.914
11.6973
34.9476
10.8023
17.0036
13.3367
13.9786
12.6212
12.0703
11.0666
9.94795
26.9763
7.80875
12.9435
10.7025
11.2133
10.4146
10.0436
9.36064
8.49726
19.6725
5.26146
9.38261
8.24109
8.7003
8.31087
8.13094
7.76587
7.13321
13.0174
3.53613
6.47335
6.13833
6.53839
6.42545
6.38391
6.21456
5.90188
7.43107
3.00199
4.33069
4.49964
4.79958
4.85501
4.90597
4.87937
4.78388
3.24631
3.21935
2.87248
3.3048
3.48915
3.63393
3.73727
3.80824
3.59888
0.401013
3.0753
1.8247
2.4418
2.55781
2.74852
2.87751
2.97706
3.00676
-1.34083
2.31077
1.0708
1.8385
1.94418
2.15823
2.30297
2.42817
2.49018
-2.30957
1.47721
0.649454
1.47365
1.58828
1.80116
1.94664
2.07586
2.20845
-2.44288
1.18669
0.600473
1.32304
1.42453
1.60825
1.7346
1.83906
2.06838
-1.78901
1.3753
0.839181
1.32081
1.38086
1.51885
1.62073
1.72497
1.83354
-1.13881
1.62166
1.10449
1.35892
1.3801
1.47513
1.55708
1.65829
1.71846
-0.747748
1.75226
1.28849
1.3774
1.3747
1.43728
1.50407
1.59094
1.6686
-0.406412
1.75849
1.37456
1.35475
1.34466
1.38831
1.44709
1.52245
1.61829
-0.246549
1.55882
1.33389
1.27894
1.28191
1.32126
1.37867
1.44453
1.58044
-0.285913
1.17536
1.17552
1.15618
1.18989
1.23807
1.30115
1.37018
1.49084
-0.314074
0.80364
0.987946
1.01598
1.08062
1.1413
1.20973
1.28258
1.37042
-0.278031
0.551918
0.813351
0.877709
0.96493
1.03906
1.11503
1.19591
1.29271
-0.311916
0.385911
0.648049
0.745882
0.846182
0.931264
1.01227
1.10112
1.16627
-0.479617
0.305606
0.488359
0.620497
0.724565
0.818191
0.904608
1.00633
0.986066
-0.841685
0.35664
0.351066
0.516654
0.617001
0.713599
0.802955
0.906498
0.861983
-1.30492
0.457647
0.132043
0.323897
0.427941
0.53931
0.66141
0.800099
0.73818
-1.40905
0.894932
0.394461
0.563547
0.622886
0.63727
0.717447
0.84956
0.143816
11.7218
11.5847
11.741
12.156
12.6614
13.2883
14.0368
14.9071
15.8929
16.9739
18.1347
19.3546
20.6002
21.8475
23.0659
24.2157
25.2755
26.2168
27.0176
27.6742
28.2449
28.8574
29.2669
29.039
28.6492
28.8079
29.5393
30.4702
31.2392
32.0516
32.9768
33.6114
33.8538
33.8914
33.8139
33.6372
33.3824
33.1229
32.8958
32.7833
32.8526
33.2094
33.9089
34.8608
35.9887
37.3336
38.9813
40.7778
42.5358
44.367
46.3722
48.473
50.553
52.4429
54.0224
55.3386
56.2749
56.548
56.6589
1.31183
0.749191
0.313638
-0.107214
-0.499104
-0.85042
-1.15432
-1.40323
-1.63936
-1.901
-2.13316
-2.28652
-2.36432
-2.36334
-2.28113
-2.11644
-1.86892
-1.53544
-1.10915
-0.578894
0.0746481
0.874558
1.81291
2.87498
3.75903
4.1496
4.03668
3.40693
2.62249
2.01971
1.5951
1.29519
1.0663
0.891974
0.765821
0.682943
0.647578
0.670051
0.760421
0.926201
1.16882
1.48394
1.87328
2.26231
2.49305
2.50738
2.33485
2.11389
2.00961
1.91623
1.74344
1.65259
1.87817
2.55758
3.61848
4.99201
6.89289
8.96177
11.0487
5.29276
5.36522
5.41071
5.51161
5.64963
5.82273
6.02948
6.26791
6.53491
6.83292
7.16698
7.53461
7.9332
8.35852
8.80734
9.27529
9.75827
10.2528
10.7569
11.2683
11.7852
12.3009
12.7914
13.2185
13.5433
13.7818
13.9397
13.9906
13.9444
13.8848
13.8305
13.7742
13.7109
13.6505
13.6019
13.574
13.577
13.6225
13.7219
13.8853
14.1229
14.44
14.8445
15.3339
15.9092
16.5779
17.3392
18.2836
19.5073
20.8456
22.0814
23.2342
24.4338
25.6498
26.7879
27.7922
28.623
29.3336
29.6111
2.1013
1.88566
1.7398
1.62701
1.54076
1.48424
1.45769
1.46172
1.49582
1.55953
1.65555
1.78651
1.95427
2.16104
2.40757
2.69411
3.01967
3.38165
3.77676
4.19929
4.6418
5.09288
5.53578
5.94755
6.29777
6.56255
6.73008
6.80103
6.79398
6.73727
6.64718
6.53241
6.39861
6.25091
6.09305
5.92958
5.76455
5.60289
5.45095
5.3151
5.20358
5.12516
5.09231
5.11772
5.21914
5.41699
5.73454
6.19081
6.79598
7.65175
8.76155
9.94364
11.1197
12.2574
13.369
14.5143
15.656
16.7639
17.8914
3.41224
3.4156
3.4223
3.46779
3.53988
3.63697
3.75782
3.90125
4.06581
4.24976
4.45217
4.67185
4.90732
5.15804
5.42259
5.6999
5.98871
6.28658
6.59192
6.90142
7.21091
7.51424
7.80343
8.06986
8.30307
8.49723
8.64747
8.75358
8.81875
8.85065
8.85649
8.84031
8.80826
8.76634
8.71835
8.67194
8.6321
8.60321
8.59594
8.61783
8.6788
8.78986
8.96482
9.21783
9.56636
10.0247
10.6083
11.3235
12.1594
13.1574
14.3423
15.5942
16.8228
17.9499
18.959
19.8775
20.6697
21.3768
21.8343
2.31239
2.20665
2.14078
2.10657
2.0966
2.11206
2.15349
2.22073
2.31383
2.43194
2.57597
2.74518
2.93943
3.15787
3.39904
3.66109
3.94178
4.23519
4.54103
4.85446
5.17086
5.48166
5.77885
6.0565
6.3001
6.50856
6.67268
6.79544
6.87605
6.91702
6.92491
6.89685
6.84148
6.76534
6.66433
6.55288
6.42994
6.29005
6.15599
6.0322
5.93067
5.86453
5.8493
5.9031
6.0479
6.29587
6.66933
7.17581
7.82247
8.6062
9.51928
10.5234
11.5898
12.7144
13.8276
14.7952
15.6072
16.3872
17.1411
2.62043
2.58952
2.57769
2.59693
2.6383
2.70163
2.78506
2.88938
3.01306
3.15293
3.30987
3.48185
3.66993
3.87166
4.08486
4.30914
4.54712
4.78347
5.02941
5.27663
5.52802
5.77136
6.00272
6.22894
6.41921
6.59491
6.73263
6.84907
6.93607
6.9909
7.02998
7.02752
7.00484
6.97651
6.912
6.85796
6.80056
6.70628
6.64731
6.60064
6.58168
6.60095
6.66992
6.80497
7.03563
7.34806
7.78263
8.32619
8.99001
9.76502
10.6339
11.5659
12.5169
13.4874
14.4294
15.2486
15.9303
16.5442
17.0346
2.36845
2.28679
2.23419
2.21641
2.21394
2.243
2.28405
2.36664
2.4664
2.55596
2.69327
2.84093
3.01633
3.21662
3.42567
3.66384
3.92197
4.11586
4.34886
4.59398
4.86401
5.11203
5.33696
5.59485
5.75791
5.94246
6.05368
6.16998
6.25628
6.30899
6.37056
6.3402
6.30413
6.29635
6.16925
6.13936
6.14099
5.90428
5.76853
5.6373
5.53316
5.45793
5.4198
5.4394
5.64339
5.81363
6.19562
6.59352
7.0641
7.6744
8.42817
9.3043
10.1756
11.0625
11.9542
12.8183
13.5991
14.3776
14.9831
2.35079
2.35648
2.34168
2.38022
2.41952
2.49335
2.55441
2.61005
2.72214
2.91398
2.9645
3.11292
3.31246
3.45879
3.68734
3.77369
4.02901
4.23398
4.45656
4.61898
4.85087
5.02805
5.20809
5.44373
5.54424
5.71806
5.78396
5.88925
6.02414
5.94786
6.13461
6.08362
5.96954
6.01132
5.84751
5.88312
5.68639
5.39857
5.49774
5.37571
5.29789
5.29566
5.21712
5.2433
5.39744
5.49328
5.76283
6.04008
6.6499
7.24897
7.86205
8.54784
9.27416
10.1797
11.004
11.676
12.3496
12.1913
12.9077
-5.73522
-5.6114
-5.16421
-4.5525
-3.85853
-3.2566
-2.78142
-2.28843
-1.7543
-1.30836
-0.962858
-0.607916
-0.283081
0.00769346
0.441559
1.04309
1.7021
2.3927
3.15826
4.03295
5.01564
6.10571
7.37581
9.06883
10.7411
-0.0100449
0.0654484
-0.107207
-0.260842
-0.195244
0.0321527
0.290044
0.567933
0.82144
0.893228
0.76761
0.571096
0.376562
0.256733
0.331814
0.60786
0.914177
1.0919
1.13678
1.22274
1.44713
1.74766
2.08383
2.52001
2.63766
-1.13928
-1.07877
-0.974125
-0.837761
-0.614623
-0.348516
-0.0883621
0.151988
0.349418
0.445098
0.440329
0.3911
0.335357
0.314394
0.390201
0.573002
0.816418
1.08239
1.36594
1.70342
2.11591
2.59948
3.15684
3.80215
4.63396
-0.663564
-0.624453
-0.51086
-0.397766
-0.24817
-0.0787863
0.0916292
0.248591
0.378218
0.460873
0.498136
0.511931
0.522916
0.551898
0.621591
0.736628
0.882723
1.04554
1.22108
1.41785
1.63916
1.87345
2.10142
2.28365
2.4845
-0.578024
-0.539991
-0.421556
-0.305785
-0.166533
-0.0210024
0.123129
0.253248
0.36245
0.442777
0.49548
0.532745
0.567985
0.613391
0.682705
0.781508
0.90771
1.05784
1.23133
1.43074
1.66106
1.91894
2.21496
2.54821
3.0348
-0.447985
-0.392209
-0.273224
-0.169026
-0.0462235
0.074137
0.195167
0.302945
0.396284
0.471898
0.52881
0.575542
0.621949
0.673318
0.739202
0.823821
0.927931
1.05097
1.19193
1.34887
1.52298
1.70852
1.90699
2.0942
2.36319
-0.288088
-0.2892
-0.160908
-0.0719225
0.0408209
0.142557
0.250922
0.344161
0.427731
0.500573
0.556617
0.605123
0.656488
0.709252
0.773252
0.851886
0.946927
1.06
1.19085
1.33579
1.49943
1.68177
1.89142
2.11204
2.44783
-0.133941
-0.206936
-0.057797
0.0125101
0.121853
0.208952
0.313689
0.394603
0.467715
0.538004
0.588266
0.632978
0.69001
0.74366
0.805979
0.881051
0.969755
1.07433
1.19418
1.32416
1.47764
1.64121
1.84046
2.05972
2.34907
-0.131226
-0.150963
0.0568493
0.0976032
0.196665
0.246541
0.345768
0.408833
0.500045
0.568201
0.621404
0.654539
0.701085
0.746157
0.811533
0.881445
0.964851
1.06511
1.20554
1.336
1.47367
1.63707
1.80529
1.89912
2.07991
-10.0642
-10.2543
3.35928
5.01143
1.05791
0.956992
-3.77908
1.47172
2.74997
6.39332
-11.174
1.3556
-11.7679
0.0587956
-10.0587
2.6295
-3.48425
4.98222
5.64882
-24.9559
-24.5448
3.11297
-9.51256
2.96618
1.40371
2.14416
1.37213
0.348611
-9.57346
-6.84148
7.47155
2.6147
-12.3865
-14.4306
-7.6438
1.33933
-3.96938
-9.50172
-6.26267
3.59235
-12.3129
3.10136
2.53361
0.270621
1.54863
4.44757
-10.9944
-9.2849
-9.10422
-11.7278
-10.9644
-11.3998
-19.9094
4.99563
-3.51189
2.81413
0.0369699
-22.3432
0.532666
-8.25884
1.53466
3.88496
1.06998
2.74486
1.4302
0.176211
2.45395
2.92625
-8.29097
-10.7721
2.33944
3.69744
1.12736
-24.1582
0.918468
-25.7199
-23.046
-11.057
0.120813
4.99883
-13.9311
1.67672
1.72393
-8.2603
1.22574
1.60216
1.12545
-11.236
-12.7085
2.0004
2.42993
1.71941
4.30141
1.41891
1.03244
-10.9875
2.04863
-10.64
3.03796
-8.3555
0.671883
-12.7478
0.628471
3.11561
0.626271
0.671274
-9.45637
-16.9688
1.98104
-6.11338
2.61377
1.66112
-7.46591
2.96145
-21.013
-9.0227
-12.3181
4.00283
-15.1721
1.87517
2.322
1.57132
3.12044
1.51261
-12.1446
2.55614
-11.6191
-25.491
-0.176297
-9.5636
1.8299
-24.2474
-10.4849
-10.682
0.129066
1.13336
1.66634
0.762571
1.72766
-24.4827
1.48519
-5.06565
-8.84668
2.35825
-9.39609
2.25684
4.79853
-24.0245
1.56859
-7.6964
-1.29158
-0.511747
4.76983
-12.6671
1.32615
-9.32506
0.93482
3.66364
-20.5803
3.91452
2.70838
2.47411
2.01642
-10.6544
2.95165
-8.11821
-0.0181936
1.19445
3.62961
0.903815
0.0682894
2.88061
2.82471
-8.43564
1.95866
0.36842
-20.0101
-10.0168
-8.62222
3.64648
-15.219
2.9489
-18.1399
-15.4186
0.747752
3.5088
-8.5278
1.92692
-12.4143
2.01148
-9.03181
-8.97738
0.156073
-4.16837
-11.5246
-12.46
0.950188
3.01336
-9.1445
-9.52357
-7.8603
3.38413
1.84366
1.83288
-1.14432
3.98952
3.12076
0.693121
-9.72205
3.66602
0.604455
1.47123
-15.0363
-1.28307
-1.2706
-11.9115
0.912595
3.65226
5.85613
1.41313
0.569667
3.14237
1.40746
3.86443
4.49041
-12.2404
2.41646
-3.21782
1.96058
1.09645
-9.02753
1.44515
2.80652
1.89706
-6.02233
4.79221
-19.9661
0.381772
-15.8606
-11.3944
6.14692
1.46652
3.15705
0.29994
1.10248
1.31757
2.51063
0.782008
2.41291
3.21164
2.00871
0.40185
3.4231
-9.56966
2.37013
0.977621
-7.42095
-22.6785
-20.4861
9.60157
2.39247
-0.172736
1.82779
1.21863
-24.0234
1.5925
4.22573
4.67602
-4.71072
1.20989
-23.1614
-0.165932
2.9139
3.65476
6.33182
4.61897
2.73486
2.09232
-0.0348072
-10.6712
0.308787
-1.16385
3.17135
4.00737
-8.33434
2.03149
0.541574
4.70106
-11.3515
-8.97699
-7.24032
2.23037
2.86128
-11.5004
-10.2878
-12.0069
-9.8007
2.09274
3.7752
-8.97923
-9.96476
2.51966
3.67791
1.932
-8.14464
3.62269
-25.3846
2.80606
-24.6318
1.86299
3.15824
3.21959
-12.8098
-0.0270799
2.8878
-3.42221
-10.961
3.42352
1.42885
-9.05479
-21.1619
2.01339
3.65911
7.31613
1.31537
1.6133
-12.3924
-17.8101
2.45449
-21.8012
2.76099
-11.5743
0.554638
5.67276
-11.607
1.56016
1.57612
1.77578
1.82164
2.71781
1.46419
1.28185
-8.9036
2.04564
-24.0162
0.931576
0.845333
3.00226
1.17661
-9.5168
2.05821
4.47256
2.56651
-20.8058
-11.5138
4.45117
-7.75644
-0.0867871
3.07121
-8.28915
-9.90409
-9.38452
3.65003
-12.356
3.1782
1.07203
2.95876
-11.4458
1.66887
-12.014
4.1444
-13.3433
-9.67515
-2.00968
-10.238
1.75094
1.7354
3.44514
3.86189
5.14761
-9.53525
2.10111
-11.6964
0.0435396
0.33956
-8.86477
3.19177
-24.9593
-11.3846
-8.81994
-2.20859
4.1903
1.21129
-7.00327
-15.3591
7.528
3.17959
-11.4672
3.67078
-9.36574
1.41097
2.71742
1.16767
-10.8918
1.20481
3.54014
-4.49987
1.2258
-0.620659
3.90548
-3.50448
1.54302
-8.75923
1.57606
2.10082
4.09824
-8.88441
-9.27738
3.87414
2.21837
2.70978
3.68185
1.99343
0.558336
3.92613
-10.3779
1.85324
3.49794
2.94538
2.64439
1.37858
0.959878
1.40629
0.14591
-5.07909
3.14029
2.02368
2.82948
2.9478
3.81704
3.79975
-11.3993
-11.6737
-0.265814
-11.3367
4.81973
0.449618
-0.115038
0.529668
0.0831817
-1.91579
2.81381
1.89226
-8.88247
3.92737
-10.7706
-7.99687
1.81262
2.4341
-24.4453
1.97933
-0.366209
-3.5673
-14.8552
-10.3758
1.23618
0.801901
4.22413
3.71927
-10.7417
0.358719
1.17463
-9.09402
3.89075
1.54333
-15.5758
1.54399
1.006
-23.8009
-23.5361
-1.40216
-7.25308
3.34659
1.28241
-8.89621
1.15344
1.58797
4.45796
-7.9336
2.84703
-14.2917
2.40193
1.66179
-6.65048
1.5832
0.748972
-12.7377
1.53001
4.33233
-12.0083
2.55617
-6.24936
1.77488
0.312349
-20.8808
-14.7122
2.23827
2.01667
-4.29051
2.20839
2.90484
-13.3348
2.28234
1.64175
3.53839
-11.4954
-8.39108
-8.69413
1.7062
-1.96621
4.02223
-9.31191
-24.92
4.97374
-13.5826
4.73897
-10.4656
-12.801
3.6643
3.88338
0.507258
2.67042
4.39209
1.31202
1.81709
-0.47275
2.07129
-9.08236
-9.27557
2.27442
-9.95872
-5.82037
2.26465
-10.0361
2.57064
4.19561
1.99135
0.541111
1.56816
1.76599
-5.61649
-7.37492
-0.146284
-9.57481
-8.85203
-10.8394
1.34021
3.59264
-9.86527
-10.3063
1.96764
-11.7978
1.89833
-14.3832
-7.0051
6.92911
-1.7516
0.414294
2.80826
2.13847
-12.9439
5.30405
-10.1673
0.816083
0.968099
-6.87868
-9.63413
-10.1636
0.525495
2.33982
-23.9718
-20.2847
3.15326
3.73049
1.59797
-11.0838
2.91927
0.966659
-5.43535
4.47781
0.932822
1.15106
2.86903
-15.265
3.79164
0.417177
-15.0956
-9.00979
1.0729
2.96357
-8.88367
0.403272
3.23872
3.66995
-25.1675
2.46715
1.86222
3.84976
4.66129
2.78467
2.84177
-6.10053
1.38559
3.53143
0.587032
-21.3107
3.79207
0.86521
4.45446
3.13789
1.24147
1.81205
3.32772
-0.638698
0.970729
-8.40463
-8.4151
0.326011
-10.4395
0.744598
1.09255
1.09983
3.44342
2.39783
1.90048
-21.4784
2.22047
1.50695
-0.449522
-17.3127
-1.9323
0.180734
0.185116
2.74487
1.0705
3.51711
2.39261
-0.142892
-8.54344
-14.8255
-20.6396
3.66307
5.55886
2.51154
5.01914
4.05583
-9.6474
13.7278
-25.6405
3.20501
-10.1737
4.95544
-10.9255
2.4222
1.16173
1.57104
-11.1537
-0.25306
0.189526
-20.5661
0.935064
6.70675
1.34384
-9.78001
3.28897
1.9705
-11.08
1.38602
4.22675
4.7903
2.96144
-19.4523
3.61359
1.76222
4.22213
0.150147
3.33494
-9.32249
-10.1184
2.40389
-5.1609
3.81049
-10.9023
1.71239
3.8499
3.14281
2.07272
-5.16696
2.51872
3.02533
0.564399
2.93973
2.29345
3.84479
4.55386
-8.29219
-14.8716
-1.09221
-9.85767
-7.54982
-8.50476
-7.89213
8.07488
0.962379
1.21989
3.53814
2.12274
-0.464403
2.47562
1.45386
-10.3841
2.92304
4.17193
0.916578
2.97147
2.01665
1.33983
-0.92664
-16.634
-11.0524
5.01712
-9.35672
-3.46961
-10.0593
-25.4604
-12.502
-11.6064
4.48473
3.62859
2.31508
3.28811
3.27759
1.86851
-9.48625
-10.2562
2.36293
-21.3994
-0.0120871
3.75091
1.40018
1.6673
-8.20207
4.2519
1.43812
-3.64644
-14.3798
-17.1027
-10.452
3.54399
3.63324
1.12177
3.35631
-9.84971
-1.10941
-9.45982
-13.6574
0.892433
-15.4436
1.98957
3.59439
0.55318
0.894083
0.79199
3.92349
2.2866
1.95811
1.85332
1.90684
2.58227
1.82048
2.44078
3.70814
-10.0797
-7.00356
2.91616
2.06576
2.69756
-24.3219
1.28756
6.267
2.90504
-23.4452
-1.15689
3.40659
1.59826
-10.0109
4.08402
-22.8228
2.02972
-23.6056
-11.0467
-17.644
4.78179
-11.2027
-0.152477
3.14004
-9.96365
3.00802
1.4097
1.89689
-12.6152
3.29631
2.64538
1.17117
-11.6049
1.12796
4.01791
-3.18799
3.91552
2.79503
2.02418
-9.86651
-9.65141
3.39432
3.88677
3.40224
-23.8598
-5.75496
3.00045
1.28393
0.794883
-21.4606
3.775
1.61456
-10.4104
6.02978
1.74611
4.79966
4.76355
-20.3535
1.70743
-23.615
3.63105
1.59908
-10.4697
3.43787
3.36761
3.72
0.379502
-22.5652
-11.2986
3.52077
3.80564
1.62572
-11.0038
-24.2767
3.5173
1.93835
-11.3039
-8.98556
1.91864
0.708028
0.710489
-9.18475
3.82312
-23.2291
2.56576
1.93398
-15.8758
2.23428
4.93443
4.05892
-24.8672
-9.77639
-8.49291
-8.8593
4.48511
-10.5936
-11.4003
3.06527
-3.71022
1.30105
0.730336
-24.518
1.88342
1.26399
-25.0263
4.31363
3.82514
3.75196
-12.4089
-0.123738
2.4873
-17.446
-9.97527
-9.36352
2.84695
1.98679
-9.42639
-8.80422
-10.4566
-20.4864
-11.4602
-0.609252
3.4664
-1.98958
-8.63913
3.11254
3.5333
-0.561331
-2.47684
2.69589
-2.12705
-9.5805
2.47511
0.820135
3.35603
-8.30124
-4.31064
-9.88002
-9.01865
4.84858
0.362294
-1.68552
1.76932
-10.1484
-20.9111
3.47825
1.81784
1.81166
3.64373
-23.3144
-10.9694
1.64829
-9.04793
2.45563
-19.7552
3.95744
1.33983
1.51657
0.831264
-10.4041
0.188182
-22.5797
2.23954
2.39597
-6.82192
3.39527
-7.6763
-10.7069
-5.63818
1.67389
3.17266
-5.92831
2.2209
3.47818
1.58079
-6.60744
2.33106
0.576915
-19.8625
-4.91555
0.78329
1.97542
2.88725
3.16593
0.747683
2.89271
-22.0949
3.35855
1.85392
-8.82293
-24.5597
0.208479
2.0868
2.34659
-1.98629
3.73575
-9.16122
0.973813
0.724602
-7.10475
2.11849
1.98449
-0.610484
1.11872
-9.59904
5.06817
3.41789
3.29353
-4.46032
-4.31338
-12.3604
1.4335
-22.291
2.34556
2.82125
2.37748
-9.44287
-15.0515
2.84578
-5.12212
3.78196
-9.75237
1.98766
-9.44496
1.1314
1.28667
3.09057
-2.20239
-8.54293
1.87179
3.13956
-24.4511
3.75334
2.78844
1.51112
3.26653
1.93226
-9.79687
2.8117
2.07276
-15.6367
0.460757
-8.9242
3.66042
1.26816
2.679
4.31021
3.59119
0.769374
-11.7336
4.3065
-0.0239613
3.71664
1.67061
-2.07523
-9.04853
2.58097
3.42452
2.18281
3.47339
3.95212
3.42887
-9.25341
5.04083
-25.0944
2.19512
-7.33978
-7.33008
0.469867
-24.365
2.31548
-10.2697
-9.57223
-9.13036
1.65548
1.86071
0.451544
-10.1519
3.65165
4.04708
2.90454
1.94455
-4.81086
0.307515
3.44015
0.80725
5.62831
7.82439
4.0987
-10.0415
8.07038
-12.7889
3.79355
2.75988
3.32697
5.12727
-18.6502
3.78793
-24.1228
-19.4007
1.25725
3.42758
-9.46717
-10.3405
3.70766
3.73921
3.80029
3.48451
4.95082
0.492518
-10.2537
1.9796
5.37872
-15.0875
1.57533
-1.13698
-8.38138
3.148
1.18826
3.37832
0.533821
-17.3714
4.39316
-22.7657
1.98132
0.541683
4.86176
-12.8927
-13.0612
2.92332
5.76426
-21.2798
3.51137
0.724454
-3.81755
-9.88674
3.86388
4.66028
3.79192
0.212391
-10.328
1.11076
3.84585
-10.1137
-9.06221
3.5852
2.95604
0.833033
5.56721
2.48313
-18.3159
1.42264
-18.4169
1.6217
3.35998
1.37734
-19.6763
2.71275
-11.2103
-4.32085
-5.13447
-10.0344
-9.69696
5.12508
2.34706
-12.1882
-19.6313
1.70202
3.37104
1.65398
0.585083
2.76606
1.47539
1.79858
-2.01182
0.757869
0.41931
-8.33583
0.744979
1.90409
2.5779
-9.21757
3.65055
-11.5481
-10.8612
0.764368
2.91874
1.98797
2.77864
1.87279
-21.6142
4.19984
3.51662
1.62502
3.10432
-17.5979
-12.8366
2.75825
2.18912
0.860036
3.59116
1.19834
0.334459
4.99456
0.741303
-0.213004
-9.89486
3.52739
2.43475
0.0312904
1.9776
1.56139
2.70571
4.19917
1.98256
3.38687
-12.1966
2.27866
5.00902
-9.1398
1.11666
-1.936
-7.61357
3.29444
1.97668
3.54149
-11.1571
2.33939
-13.8116
3.84703
-7.84723
-11.4552
-25.2231
-9.89039
3.85265
1.57704
-24.1689
-21.5839
0.748932
3.36561
3.85385
-10.2367
3.50387
2.46984
3.75295
4.26015
-2.37972
3.79341
0.977446
3.65801
-10.177
-24.5478
5.3813
5.19071
5.5969
2.85616
1.78281
-5.1324
4.93389
-0.0770747
-12.0532
-25.0616
3.37714
-21.7267
-9.56933
-24.5342
-10.3348
-0.184272
-11.6668
-11.671
-8.83257
3.57562
-9.11058
4.06114
2.28031
4.7415
3.74025
-11.5388
-13.8499
-10.3323
-15.1488
0.503284
2.64451
-3.9116
-11.289
4.31727
-12.1295
3.54686
-24.5869
3.80567
-9.83719
-1.21964
0.644391
1.92308
-24.9722
1.64373
-0.646837
-24.3515
3.10511
-9.097
2.04467
2.57822
-7.35897
-3.8323
2.12246
-18.6643
-10.6866
5.16774
-19.9712
4.34429
3.30666
0.380464
0.702839
-10.9496
-11.6172
3.654
-13.0224
2.00652
-23.0413
4.34247
3.17346
2.73653
-23.645
-2.06869
-18.1409
2.46284
-9.47213
1.09893
-19.8145
-12.1138
-1.0885
3.9052
-10.3243
3.18668
2.16942
3.2216
-19.939
-11.6085
1.50987
-12.9313
2.2179
1.90548
-4.42506
2.56175
1.46702
-12.1119
3.87607
3.3813
4.36757
1.60994
2.9145
5.15435
-11.1584
-10.3984
1.88673
4.36558
2.13984
-11.8866
-10.6387
1.58048
-0.240216
0.593184
-13.2984
-0.271531
-2.10174
-9.87473
1.33577
-19.6105
-12.2274
1.46055
1.67474
4.15544
4.3767
1.30711
2.3536
0.762327
0.365909
-11.0879
2.6338
-12.5734
1.38476
-11.5725
3.04059
-15.0358
-1.08637
-23.8285
-9.76714
0.85106
-0.603236
3.00077
3.04797
2.81645
-9.47964
-8.98639
3.42815
3.45714
2.67131
3.39665
1.48976
2.09525
-12.2087
-9.13844
-24.2279
-12.6049
4.25229
1.26266
-13.2194
3.38335
-9.84453
3.37469
1.61883
0.653599
2.3319
1.58798
2.65285
1.60291
-0.850886
-11.6703
-10.1499
4.59596
1.69751
-23.4812
1.97092
1.79202
-7.48229
-10.1913
-8.82935
2.63204
-24.9031
1.74873
4.34522
3.92164
1.43319
9.56927
-4.06855
-8.7796
3.23049
0.515698
-24.3613
2.32672
-11.104
-8.79478
2.58921
-0.0174639
3.45714
0.618844
-14.8779
0.810994
-9.96574
0.621062
3.00087
0.668613
4.59424
0.0224083
4.28333
2.5163
3.17599
1.26533
2.16476
-19.2461
4.25663
-3.8419
2.14083
2.58742
2.97759
0.69243
1.77997
0.0495887
-10.9795
2.19736
-10.7727
6.03649
-21.437
3.39636
4.08181
1.49652
1.26065
-9.49143
2.83728
2.76539
1.46504
-2.99903
3.96583
4.90946
4.48533
3.53505
-5.48334
1.61924
2.12305
-13.4174
1.70065
5.25804
2.43902
-10.107
2.58359
-10.4889
-10.2165
3.89749
4.23445
3.5622
3.36383
-12.9038
3.33034
4.4038
2.93197
-19.3252
0.737217
3.92405
1.17983
-6.80773
-4.10325
0.808116
1.94449
-8.73142
3.5376
1.84184
-10.2199
2.40402
-2.20811
-10.7843
7.07629
-14.454
3.35455
2.47548
4.40532
1.55273
-1.38316
-8.51615
2.7325
5.25292
-11.2092
2.7771
3.9416
3.69301
0.228258
-4.89601
1.30255
1.14788
5.51562
2.18598
1.1445
2.2179
0.677294
4.25426
-4.8892
-17.8767
1.19866
-10.5108
0.802139
-23.0497
-10.51
-23.2157
-8.94301
4.15626
3.23046
-19.7738
3.80195
2.90317
-9.21871
2.35911
4.64184
-10.3548
-12.921
2.88542
-9.03571
1.07186
-10.0693
0.89769
3.77825
1.35167
0.377486
-22.8796
2.69653
3.7405
0.00957037
1.97456
-11.6172
0.0129409
1.97226
-10.0273
0.270288
-10.7087
0.281056
-12.9947
2.51532
4.07644
2.03378
4.40347
-22.4277
-8.41109
-23.2851
1.07648
-10.8836
-18.375
4.38781
-24.4786
-1.59398
3.5925
-24.4103
-9.61449
3.0547
0.708547
0.980623
-12.4011
1.37941
3.70105
-19.3842
-21.8809
0.257102
-12.6363
-15.4951
1.73541
0.541501
-4.01688
0.747127
-24.2455
0.748454
3.34717
1.61247
-6.2842
1.1947
-2.34504
-10.7155
1.30644
-2.65601
-0.939748
3.28203
-10.9322
3.12795
-24.9765
3.4777
1.6373
2.29819
4.91888
1.85197
2.30589
3.64074
0.861427
3.84927
-10.745
-22.6654
1.86002
-25.1499
1.28154
1.65846
2.55517
2.72696
2.46774
-9.93454
3.72544
-3.8505
-11.1759
-7.80421
-23.1782
4.29822
3.24175
-11.4488
2.9744
2.02244
2.36464
1.40031
2.03068
-9.33761
3.36429
3.95406
1.37623
0.617493
0.478879
-6.75629
-2.2729
-2.66817
-8.60225
1.9162
1.53479
4.40771
2.38671
1.38996
1.80511
0.626731
1.60574
5.42458
3.43744
3.7142
-3.22065
-11.2834
-9.83745
0.71688
3.92344
-2.27487
-8.85252
-9.41028
1.06725
1.90037
0.150099
3.41086
1.36298
0.702946
-8.86806
-2.29605
1.51322
2.09132
2.70839
0.638616
-10.6907
0.956304
2.67485
1.86938
2.32581
-9.77815
4.45547
-12.3514
4.0987
0.819426
0.61123
3.25244
-9.78632
-1.31713
2.63999
-12.4293
-23.0731
-0.129423
3.6443
2.21563
-17.9271
-13.1094
-12.784
1.63217
-24.6581
3.64595
7.93504
-5.64621
-9.2038
1.45708
1.70041
-2.83821
-6.26589
4.33703
1.14124
-9.40889
1.55951
4.29827
2.61599
3.42853
4.50656
4.79789
3.56776
3.67068
-10.1628
3.27614
1.2669
1.02407
3.01095
-0.9312
0.818111
-21.4327
-2.0042
-2.25812
3.8909
2.88051
3.19547
3.85772
2.45314
1.57074
-22.687
3.79813
0.885236
4.29731
2.83608
2.15734
0.733999
3.68215
-11.4463
1.40901
-23.2956
2.6232
6.5251
3.10211
2.7224
3.63068
-10.5278
3.15714
1.02855
3.51772
3.85102
-18.1451
1.84425
3.23494
-9.5931
-11.9738
1.30121
-9.73476
3.89709
-21.7191
3.54848
-11.3691
3.70522
-3.61366
1.79532
-10.5011
0.354592
-15.1748
-9.03395
-9.59664
-0.309317
-12.5727
1.68109
0.924073
1.61111
-10.2784
3.41223
0.869187
-24.8672
-9.99874
-10.0697
4.35262
-12.9781
0.65266
2.82836
1.45863
-1.57739
3.63174
-8.71719
2.54339
2.31973
4.56152
3.73223
3.75909
-10.9246
3.2791
4.64051
-10.0033
-1.77023
1.06734
1.82844
-9.19194
2.85711
2.9916
-11.38
4.06941
1.14478
-4.28103
2.95961
0.545662
-25.1332
1.81317
3.64808
3.66058
1.37147
4.06144
2.36675
-11.5265
1.20305
-14.5128
0.198354
0.650584
-9.69414
-0.157311
-0.12505
3.72497
1.11983
2.16755
1.20992
-9.83205
-9.6266
3.37753
2.61142
2.10158
-17.4689
0.770643
-2.19996
1.23621
0.635198
3.15544
4.32203
-2.94192
0.73896
-19.0356
-20.288
3.43432
-14.3006
5.45097
-23.2194
-1.59643
1.41032
2.72447
0.792984
2.79164
2.57794
-16.7215
-1.18627
-9.41743
-9.39698
-24.8339
2.93076
1.21462
-5.05785
1.31123
-4.24499
-12.2948
3.284
-9.71543
-23.8288
-8.8644
3.59056
1.21346
1.87405
4.47113
-10.9768
3.75014
-11.0106
3.27417
3.88457
0.452385
-10.0344
-19.3995
2.0709
3.76702
4.44134
3.59227
2.51879
-2.26255
-24.2052
2.69399
1.54011
-10.9575
3.76981
-21.2601
3.47773
2.13081
4.46597
-9.75262
3.03468
1.8254
3.32509
3.48078
0.374141
2.2906
-9.54129
0.475167
1.88123
2.63339
1.69418
-24.506
1.21727
1.02211
-9.24911
-10.0196
0.664897
-22.6549
3.88749
-8.89754
-24.9275
3.39685
0.415548
2.34705
2.17726
1.0341
-15.1787
-1.50985
6.43796
1.42947
-8.85132
-1.64401
-8.42621
-23.1608
-0.667383
4.07867
-9.81289
0.688889
1.54323
1.74834
4.14734
-23.8585
-12.1082
3.0778
-22.7186
2.40845
-23.926
2.35528
-9.231
-12.3288
-9.05952
3.95901
0.405929
3.56492
0.720021
-24.9839
-7.05336
3.73737
-1.89734
1.09916
-10.9621
3.27062
-4.60422
-1.25058
-9.21303
0.649465
-19.8814
0.0752464
-10.1732
-10.1876
3.53052
0.795437
2.57734
5.18566
2.20058
-5.84196
3.71926
2.17527
-21.1726
1.06529
-0.317388
0.324593
3.16112
4.01655
-22.9619
-12.8798
0.150879
-18.5627
1.81206
3.61514
2.56545
-10.4658
-21.8621
-10.7618
2.23517
3.02623
3.46241
-9.32613
0.156531
-1.83427
2.10339
-12.2264
2.23745
-0.0562897
-15.5019
3.18922
3.82439
0.77818
4.13775
2.00989
4.87856
0.861943
2.56163
3.09178
-11.3517
2.26996
-15.9462
-17.8301
0.014991
-8.76379
4.65017
-9.56414
4.17509
-14.965
1.70736
3.0583
4.27592
4.54589
2.42088
-0.591823
5.37991
-24.5842
2.42369
3.02841
1.60704
-12.7419
3.01611
3.23359
2.53456
-13.1892
2.06217
-8.85169
-4.23235
5.91077
5.06009
-3.60586
-22.1408
-23.8164
-2.31698
3.6823
0.813814
-22.0176
-11.0866
-10.1664
-14.2642
3.3972
2.64471
2.54783
0.102071
4.52998
3.41796
3.95527