/*--------------------------------*- C++ -*----------------------------------*\
  =========                 |
  \\      /  F ield         | OpenFOAM: The Open Source CFD Toolbox
   \\    /   O peration     | Website:  https://openfoam.org
    \\  /    A nd           | Version:  10
     \\/     M anipulation  |
\*---------------------------------------------------------------------------*/
FoamFile
{
    format      ascii;
    class       surfaceScalarField;
    location    "1000";
    object      phi;
}
// * * * * * * * * * * * * * * * * * * * * * * * * * * * * * * * * * * * * * //

dimensions      [0 3 -1 0 0 0 0];

internalField   nonuniform List<scalar> 
16133
(
1.80817
0.25389
-0.464374
-1.59781
-1.42311
1.04795
-1.30004
1.67517
-0.599852
-2.5841
1.95944
1.22453
-0.172743
-0.087971
-2.86491
3.12559
-1.01675
0.0432162
4.79446
-3.82095
5.30949
1.60745
-6.73153
-0.185399
-2.6286
0.806308
1.57814
0.244164
-0.0485137
-2.22849
0.591004
1.686
-1.25443
1.84772
1.30312
-1.8964
0.521777
3.83079
-0.0944085
-4.25815
2.30031
-1.97431
1.13158
-1.45764
3.18818
-1.14248
0.992731
-3.03846
-0.170775
-3.97323
2.33385
1.81013
0.885897
-0.776339
0.605524
-0.715091
0.968491
0.658703
-0.741308
-1.15703
0.819507
-2.58091
2.91845
-0.633721
0.534513
-0.677141
-5.5854
1.26708
4.18036
0.137905
-3.23172
2.64555
-0.668248
0.110883
2.03634
-0.339056
-0.494683
1.91749
-1.62151
0.198701
-0.369076
-2.77395
2.97025
-2.92403
3.01049
-1.24348
4.26366
-3.45213
-0.061604
-0.749909
-3.78167
4.54475
-0.241276
-0.00245665
0.00323428
-0.0695749
0.0687967
0.0257384
-0.0062855
-0.0169338
-0.00251966
-0.210012
-1.95476
1.79135
0.373416
-0.0320459
0.0566354
-0.0379321
0.0133428
-4.51263
2.75801
2.41932
-0.734099
-3.93705
2.25185
-1.46172
1.26795
2.49405
0.684867
-2.01349
1.28012
-0.0309147
0.17033
-0.0168963
-0.122519
-2.04458
-1.98002
2.07348
1.95112
-0.809216
1.1037
0.943733
-1.23824
-1.68835
-3.04813
2.69191
-0.036704
0.080606
-0.0938912
0.0499892
0.0421905
0.0868299
-0.0226807
-0.10634
-3.14528
0.578057
-0.664503
-4.72655
0.11951
-2.60938
-0.619067
-0.877136
-0.298755
0.0779531
1.09793
-0.453247
2.5182
0.171886
-2.23685
3.13444
-1.35304
-3.46975
1.83106
-0.712674
0.599973
-0.0170533
-0.424663
-0.313238
0.601554
0.136344
1.48197
0.889808
-0.52404
2.90144
-2.72305
-0.547489
-1.15494
-1.56823
-4.60221
4.81672
-3.26702
3.05253
0.118578
0.0412938
-0.117681
-0.0232159
0.0362415
0.0559045
-0.0689301
-0.0160721
0.0485738
0.0543283
-0.0327914
-0.0224141
0.0231599
2.80426
-1.50103
-4.35135
-0.0495626
-0.0746379
0.112376
0.0118244
-0.547467
0.807473
-0.527981
0.267967
2.6553
0.0724582
0.0169109
0.0292083
1.03519
-1.1504
-1.30792
0.0729788
-0.0212518
0.0166905
-0.0684178
2.14435
-3.75451
3.31835
-1.70818
1.445
-1.23458
-3.12874
2.13911
-1.59446
-0.478375
-0.202949
0.133854
0.0244322
0.270817
-0.0531719
-0.242079
0.769299
1.7392
-2.94108
0.284817
-0.795869
0.0327789
0.00780811
-0.0638031
0.0988053
-0.0250032
0.00914393
-0.0829458
-0.9008
0.403009
1.44494
-0.947146
1.59023
-2.63638
-2.08257
0.614312
-0.929185
1.28336
-0.709813
-0.9486
0.988106
0.670297
-3.3002
1.17373
-0.814613
-1.54702
0.971314
1.38202
-1.30898
1.18255
0.811314
1.22264
-1.11612
0.507778
3.17015
-3.02283
0.5783
-0.725658
1.68009
-1.49097
-0.377504
0.188368
0.0538657
0.116208
-0.12878
0.0442815
0.0658895
-0.0739295
3.50901
0.445522
-0.784403
-1.12075
0.931421
1.06105
-0.871735
1.42891
-1.24156
-0.942345
0.754996
2.44109
-2.12201
-0.772356
0.866151
-0.453172
0.445669
-0.858648
1.62981
-0.89388
0.692978
2.82841
0.416146
-0.803491
3.67656
-0.936182
1.8684
0.0655809
1.07071
-0.885502
0.680941
1.87359
-0.790765
0.546977
-1.27977
-0.650202
0.947954
3.11555
-0.386994
0.615749
-0.710878
-0.834058
0.80933
-0.383445
0.381583
-2.96357
3.27088
-0.573553
0.266186
1.00113
-0.838551
4.36315
-4.15741
0.969229
-1.17495
0.760574
-0.741825
0.493404
0.659689
4.63378
-0.93031
0.069426
2.044
-0.0647171
0.530294
-0.651694
-0.213539
4.54171
-0.819177
1.26604
-0.506845
0.463429
0.203358
-2.49132
-0.435099
-3.76872
-1.40542
-1.35233
-0.433804
0.295159
-0.477614
0.39132
0.155773
-2.17144
-2.50117
-0.604594
3.08564
0.7898
1.22241
-1.95571
-1.06741
2.25074
-3.08102
-0.382935
2.85932
1.76578
1.82996
-0.510118
0.541327
-0.197583
-1.05356
1.40516
-1.07665
-0.703424
0.427044
1.54881
-1.27244
-2.42529
2.77932
1.44579
-1.79983
-0.0484393
0.114167
0.0066749
-0.0724026
-0.539045
0.662367
1.01867
-1.13971
4.41458
-3.58158
-0.0557997
0.0477091
-0.0117393
0.0198302
1.16872
-1.20978
-2.07736
-1.80963
-1.95694
-0.981693
0.524276
-0.0160101
0.101072
0.0137434
-0.0577307
0.139151
0.0926162
-0.174037
-0.485742
0.569518
-1.36356
-0.41501
3.15358
-1.64959
-2.23119
-0.0981006
-0.226167
0.0313013
-2.71187
3.77817
-0.0516999
-0.154977
-0.271699
-0.680087
1.99152
-4.13825
2.82684
3.08552
0.839183
-0.880885
0.755248
-0.713553
1.26197
-1.32067
1.10433
-3.56218
-0.804925
0.7225
-0.551305
2.57112
1.06744
-4.31866
-0.491185
0.130392
-0.0638715
-1.15891
-3.81187
1.7617
-1.53309
3.15618
1.40645
4.41706
2.00711
-0.155337
0.0346464
0.277577
-0.156886
3.24242
1.24444
-1.70755
0.758888
-1.44125
1.36655
1.76383
-1.68914
4.60487
1.10898
-2.12632
-3.58754
-0.885919
0.509748
-2.57884
2.91057
3.38637
-3.3588
-0.241139
-0.424477
1.20099
3.0753
3.10503
-1.78481
1.37891
-1.60759
-3.10428
-0.26077
2.98208
-2.47937
1.76681
-1.24111
1.95365
-3.53358
-4.3592
-0.254124
-2.76865
0.442281
-0.49756
-0.84552
0.00509985
0.00442156
-0.00640207
-0.00311979
-0.391226
0.519529
3.1419
-3.05051
0.976033
-1.13383
-1.60747
-1.28333
-0.657633
0.621858
-0.131497
0.167265
-2.26938
-0.320058
-0.0496649
0.115701
-0.00940128
-5.19284
-0.434341
-2.28087
1.15039
0.0967371
-0.0727185
-0.787366
-1.09707
1.99289
-2.44283
2.4582
3.30547
2.87818
2.73915
-2.05168
0.13962
0.054265
-0.140019
-0.0636358
-0.00817391
0.738084
-1.40683
1.05727
-1.58357
1.71883
-2.0466
-0.531855
0.71503
-0.629442
-1.1278
0.0218729
1.556
1.02232
0.148707
0.00689852
-0.19231
-2.61431
2.23351
0.17975
-0.987479
1.17182
-1.95807
2.92999
-0.816191
-0.489763
0.0679407
0.0624723
-0.0574345
3.17405
-0.236531
0.0154514
-0.270106
1.99135
1.23786
3.14123
0.0193872
0.0114508
-0.812712
0.820118
-0.551247
1.27462
0.128233
-0.123808
-0.159013
0.154588
-0.0565167
0.0540599
0.457924
0.0787005
-0.0738316
-0.0545338
0.672562
-0.256701
0.205989
0.267458
-0.131667
-0.187492
0.760324
0.0140092
-1.16556
-0.0260561
-0.0877351
0.149636
-0.0358452
1.67254
0.0551181
-0.0597088
0.00459077
-0.441302
-1.04679
3.02352
-3.90804
0.978566
0.710394
0.454289
-0.436821
-0.148968
-1.6805
-0.00139863
0.920692
-3.62358
-0.05489
0.055877
0.0226649
-0.0236518
-0.388026
-3.49226
-0.0895876
-0.0179249
0.0814561
-2.71146
-0.495987
-2.26198
4.25971
-1.96962
-0.0278133
-0.132333
0.0724108
0.231214
-0.287041
0.184059
-0.0240367
-0.0450588
0.0363044
-1.21896
1.37305
-0.516031
1.51631
0.884888
-0.682365
0.0080783
-0.0186356
0.010557
-0.914136
-1.52765
0.0225644
-0.0358501
0.0132862
1.15201
-3.5283
0.822147
0.911193
-0.423712
1.20404
0.0181931
0.00437129
0.347347
-0.160654
-0.194418
0.331707
0.162194
-0.589842
1.43066
-0.330395
-0.557342
3.10095
0.161984
-0.0604008
0.0380365
-0.385415
0.144933
-0.708392
0.941761
-1.64849
-0.383061
1.9286
-0.599627
3.21579
0.0496923
0.00436705
0.297523
-3.14912
1.07056
-0.55929
-1.53029
1.15831
0.733342
0.254878
-1.73642
1.32275
-0.158596
-0.0309432
0.0657307
5.1692
-0.0757811
0.0449228
0.0783641
-0.0790054
-0.103227
0.151012
-1.77117
0.122135
0.0615062
-0.0984619
0.0270228
0.0313141
-0.0583369
-0.544653
-2.72088
3.46111
-0.390517
0.229073
0.19386
-1.59669
0.00678137
0.00129669
-0.960819
-3.15876
0.225106
0.0435117
0.0857229
-0.0843118
-0.194085
-0.159279
-0.0192873
-1.4594
-0.101167
-2.28826
-1.21573
-0.00882722
0.126387
0.265886
-0.144038
-0.660229
-0.0281355
0.025512
-0.0186286
0.0537773
0.15192
-0.151432
-0.249478
-1.65549
-2.77964
0.0463222
0.00336999
0.146072
-1.64026
0.0312281
0.945105
-0.0250269
0.0403792
0.0600209
0.0726543
-0.0891635
0.467175
0.144269
-0.0152033
0.0289234
-0.0396737
-0.0108806
0.0104382
-0.134964
0.217004
-0.0989372
-0.00156451
0.0127674
0.0479636
-0.00164152
0.00182309
-0.00822561
0.15357
0.0289279
0.00414239
-0.0104054
-0.16255
1.28319
-0.938609
0.837969
0.0188619
-0.0938044
-0.0145113
0.216581
-0.286078
-0.440039
0.683956
0.523938
-1.25254
-1.06008
-0.0234003
0.0342459
-0.0485066
0.0310029
-0.0642986
-0.00862267
0.0176151
0.00401908
-0.000985465
0.0489491
-0.0775335
-0.0554774
1.32425
-0.011134
0.0407753
-1.70148
0.430872
-1.15316
-0.495049
-0.0821596
0.00444034
-0.0189517
-0.0451428
0.0164343
-0.043974
0.0552387
-0.0148093
0.435941
-0.591653
-0.740886
0.697259
-0.0621912
-1.20465
-0.329633
-0.0561614
-0.030295
-1.19171
-0.951452
-0.0252146
-0.0413238
0.0290361
0.120321
-0.41568
0.0398009
0.0188077
-0.0488662
0.968353
-0.017318
0.0249754
0.00300564
-0.0143144
3.15865
0.0702032
-0.196603
-0.716638
-0.186146
-0.700915
-0.00446035
0.122416
-0.117955
-0.00880045
0.128001
-0.12366
-0.0130845
0.13971
-0.135426
-0.0176889
0.149524
-0.14492
-0.0224842
0.159409
-0.154614
-0.0276377
0.168325
-0.163171
-0.0330484
0.177055
-0.171645
-0.0387975
0.185383
-0.179634
0.193503
-0.187703
-0.0445973
-0.00373742
0.126153
-0.00770567
0.131969
-0.0115477
0.143552
-0.0156597
0.153636
-0.0198746
0.163624
-0.0243982
0.172848
-0.0291562
0.181813
-0.0341939
0.190421
0.198823
-0.0395145
-0.00335823
0.129512
-0.00674119
0.135353
-0.0100798
0.146891
-0.0136191
0.157176
-0.0172703
0.167275
-0.0211621
0.17674
-0.0252628
0.185914
-0.0296042
0.194762
0.20342
-0.0342012
-0.00299452
0.132507
-0.00582044
0.138179
-0.00861734
0.149688
-0.011564
0.160122
-0.0146349
0.170346
-0.0179104
0.180016
-0.0213774
0.189381
-0.0250719
0.198457
0.207385
-0.0290367
-0.00259699
0.135104
-0.00486279
0.140445
-0.00709676
0.151922
-0.0094537
0.162479
-0.0119347
0.172827
-0.0146009
0.182682
-0.0174604
0.192241
-0.0205464
0.201543
0.210724
-0.0238853
-0.00207915
0.137183
-0.00379572
0.142161
-0.00547728
0.153604
-0.00725415
0.164256
-0.00914788
0.174721
-0.0112093
0.184743
-0.0134439
0.194475
-0.0158822
0.203981
0.213399
-0.0185568
-0.00129408
0.138478
-0.00253529
0.143403
-0.00371323
0.154782
-0.00495329
0.165496
-0.00627223
0.17604
-0.00772199
0.186193
-0.00932744
0.196081
-0.0111063
0.20576
0.215383
-0.0130908
-0.00024427
0.138722
-0.00112389
0.144282
-0.00185016
0.155508
-0.00257091
0.166217
-0.00332734
0.176796
-0.0041795
0.187045
-0.00514996
0.197051
-0.00626562
0.206876
0.216613
-0.00749548
0.000725919
0.137996
0.000231403
0.144777
-1.00789e-05
0.155749
-0.00020289
0.16641
-0.000392314
0.176986
-0.000638438
0.187291
-0.000982661
0.197395
-0.00143477
0.207328
0.217197
-0.0020182
0.0013023
0.136694
0.00132632
0.144752
0.00167587
0.1554
0.00206767
0.166018
0.00246812
0.176585
0.0028059
0.186954
0.0030593
0.197142
0.00320309
0.207184
0.217151
0.00324854
0.00151451
0.135179
0.00218286
0.144084
0.00320264
0.154379
0.00420124
0.165019
0.00517982
0.175606
0.00607542
0.186058
0.00688153
0.196336
0.00756934
0.206496
0.216598
0.00812287
0.0016324
0.133547
0.00302747
0.142688
0.00466468
0.152742
0.0062145
0.163469
0.00769532
0.174125
0.00909716
0.184656
0.0103968
0.195036
0.0116019
0.205291
0.215582
0.0126174
0.00211354
0.131433
0.00413362
0.140668
0.00616805
0.150707
0.00810192
0.161535
0.00996681
0.17226
0.0117501
0.182872
0.0134485
0.193337
0.0150465
0.203693
0.214066
0.0165627
0.00290221
0.128531
0.00534685
0.138223
0.00761008
0.148444
0.00978366
0.159361
0.0118945
0.170149
0.0139264
0.18084
0.0158778
0.191386
0.0177287
0.201842
0.212301
0.0194932
0.00360187
0.124929
0.00637978
0.135446
0.00880206
0.146022
0.011112
0.157051
0.0133579
0.167903
0.0155399
0.178658
0.0176398
0.189286
0.0196314
0.19985
0.210398
0.0215343
0.00394612
0.120984
0.0069936
0.132398
0.00953637
0.143479
0.0119454
0.154642
0.0142802
0.165568
0.0165439
0.176394
0.0187183
0.187111
0.0207815
0.197787
0.208431
0.022748
0.00365554
0.117328
0.00696258
0.129091
0.0096682
0.140773
0.0122092
0.152101
0.0146416
0.163136
0.0169784
0.174057
0.0191945
0.184895
0.0212887
0.195693
0.206507
0.0232132
0.00291308
0.114416
0.00632614
0.125678
0.00925054
0.137848
0.0119689
0.149382
0.0145278
0.160577
0.016947
0.171638
0.0192177
0.182625
0.0213312
0.193579
0.20457
0.023268
0.00226908
0.112147
0.00554769
0.122399
0.00858487
0.134811
0.0114487
0.146518
0.0141362
0.157889
0.0166592
0.169115
0.0190112
0.180273
0.0211969
0.191394
0.202537
0.0232301
0.00190546
0.110241
0.00494606
0.119359
0.00796492
0.131792
0.0109
0.143583
0.0136819
0.155107
0.0163023
0.166495
0.0187475
0.177827
0.0210065
0.189135
0.200475
0.0230678
0.00173644
0.108505
0.00459253
0.116502
0.00754391
0.128841
0.0104967
0.14063
0.0133493
0.152255
0.0160702
0.163774
0.0186368
0.175261
0.0210112
0.18676
0.198352
0.0231339
0.00176636
0.106739
0.00451771
0.113751
0.00740181
0.125957
0.0103434
0.137689
0.0132551
0.149343
0.0160894
0.160939
0.018813
0.172537
0.0213566
0.184216
0.196013
0.0236957
0.00210042
0.104638
0.00475058
0.111101
0.00755988
0.123148
0.0104766
0.134772
0.0134522
0.146367
0.0164287
0.157963
0.0193803
0.169585
0.0221633
0.181433
0.19358
0.0245962
0.00273726
0.101901
0.00524978
0.108589
0.00797055
0.120427
0.0108858
0.131857
0.0139477
0.143306
0.0170817
0.154829
0.0203254
0.166342
0.0234093
0.178349
0.191435
0.0255543
0.00343869
0.00568766
0.00843358
0.0115101
0.0147964
0.0181932
0.0219851
0.0262973
0.0315857
-0.0963351
-0.00124536
0.0975805
-0.0949108
-0.00142434
-0.0932842
-0.0016266
-0.0914299
-0.00185424
-0.0893294
-0.00210048
-0.0869651
-0.00236437
-0.0843236
-0.00264147
-0.0814006
-0.00292311
-0.0781919
-0.00320865
-0.0747034
-0.00348853
-0.0709393
-0.00376395
-0.066911
-0.00402834
-0.0626345
-0.00427639
-0.0581266
-0.00450789
-0.0534115
-0.004715
-0.0485122
-0.00489934
-0.0434582
-0.00505384
-0.03828
-0.00517819
-0.0330146
-0.00526525
-0.0277057
-0.00530888
-0.0224091
-0.00529644
-0.0171997
-0.00520938
-0.0121588
-0.00504079
-0.00732884
-0.00482992
-0.00263197
-0.00469676
0.0020804
-0.00471231
0.00695566
-0.00487514
0.0121337
-0.00517801
0.0176145
-0.00548062
0.0232699
-0.00565535
0.0289925
-0.00572246
0.0347116
-0.0057189
0.0403769
-0.00566524
0.0459399
-0.0055628
0.0513534
-0.00541345
0.0565757
-0.00522215
0.0615662
-0.00499042
0.0662868
-0.0047205
0.070708
-0.0044211
0.0748059
-0.0040978
0.0785705
-0.00376446
0.0820047
-0.00343427
0.0851231
-0.00311817
0.0879672
-0.0028442
0.090605
-0.00263759
0.0931115
-0.00250652
0.0955373
-0.00242554
0.0979101
-0.00237281
0.100231
-0.00232051
0.102491
-0.00226038
0.104682
-0.00219086
0.106786
-0.00210367
0.10879
-0.00200404
0.110674
-0.00188357
0.112423
-0.00174859
0.114027
-0.00160468
0.115482
-0.001454
0.116791
-0.00130886
-0.00116439
-0.0936259
-0.0027472
0.0951278
-0.0919949
-0.00305537
-0.0902269
-0.00339459
-0.0883113
-0.00376983
-0.086243
-0.00416883
-0.0840092
-0.00459818
-0.081605
-0.00504568
-0.0790176
-0.00551051
-0.0762391
-0.00598717
-0.0732575
-0.00647013
-0.0700621
-0.00695942
-0.0666453
-0.00744523
-0.0629987
-0.00792301
-0.0591249
-0.00838172
-0.055024
-0.00881594
-0.0507016
-0.00922175
-0.0461675
-0.00958795
-0.0414354
-0.00991028
-0.0365181
-0.0101826
-0.0314307
-0.0103963
-0.0261809
-0.0105462
-0.0207566
-0.0106337
-0.0151232
-0.0106741
-0.00924732
-0.0107057
-0.00317372
-0.0107703
0.0029984
-0.0108843
0.00917246
-0.0110491
0.0152516
-0.011257
0.0212364
-0.0114653
0.0271826
-0.0116015
0.0331003
-0.0116401
0.0389661
-0.0115845
0.0447412
-0.0114403
0.0503933
-0.0112148
0.0558876
-0.0109076
0.0611958
-0.0105303
0.0662937
-0.0100882
0.071169
-0.00959581
0.0758115
-0.00906343
0.0802212
-0.00850756
0.0844022
-0.00794544
0.0883601
-0.00739212
0.0921126
-0.00687069
0.0956621
-0.0063937
0.0989943
-0.0059698
0.10209
-0.00560235
0.104942
-0.00527703
0.10754
-0.00497111
0.10989
-0.00467033
0.111997
-0.00436719
0.11388
-0.00407457
0.115567
-0.00379089
0.11708
-0.00351664
0.118444
-0.00324769
0.119676
-0.0029804
0.1208
-0.00272856
0.121828
-0.00248272
0.122777
-0.00225724
-0.0020479
-0.10122
-0.00442328
0.102896
-0.0994114
-0.00486412
-0.0974637
-0.00534225
-0.0953766
-0.00585699
-0.0931353
-0.00641009
-0.0907327
-0.00700088
-0.0881557
-0.00762259
-0.0853939
-0.00827235
-0.0824305
-0.00895054
-0.0792527
-0.00964801
-0.0758514
-0.0103607
-0.0722199
-0.0110768
-0.0683529
-0.0117901
-0.064245
-0.0124896
-0.0598934
-0.0131676
-0.0553034
-0.0138119
-0.050473
-0.0144183
-0.0454099
-0.0149735
-0.0401189
-0.0154736
-0.0346043
-0.0159109
-0.028866
-0.0162845
-0.0229051
-0.0165946
-0.0167269
-0.0168524
-0.0103564
-0.0170762
-0.00384166
-0.0172851
0.002768
-0.017494
0.00942115
-0.0177024
0.0160619
-0.0178978
0.0226463
-0.0180498
0.0291668
-0.0181221
0.0356179
-0.0180913
0.0419811
-0.0179477
0.0482315
-0.0176909
0.0543389
-0.0173222
0.0602806
-0.0168494
0.0660328
-0.0162826
0.0715763
-0.0156318
0.0768982
-0.0149178
0.081991
-0.0141562
0.0868463
-0.013363
0.0914646
-0.0125637
0.0958452
-0.0117728
0.0999851
-0.0110106
0.103875
-0.0102838
0.107512
-0.00960643
0.11088
-0.0089708
0.113979
-0.00837589
0.116819
-0.00781133
0.119421
-0.00727193
0.121798
-0.00674403
0.123956
-0.0062325
0.125908
-0.00574381
0.127677
-0.00528549
0.12928
-0.00484996
0.130738
-0.00443853
0.132066
-0.0040569
0.133286
-0.00370268
0.134403
-0.00337385
-0.00307123
-0.107683
-0.00613376
0.109393
-0.105837
-0.00671021
-0.103841
-0.00733824
-0.101686
-0.00801186
-0.0993646
-0.00873165
-0.0968656
-0.0094999
-0.0941786
-0.0103096
-0.0912879
-0.011163
-0.0881877
-0.0120508
-0.084868
-0.0129677
-0.0813214
-0.0139073
-0.0775341
-0.0148641
-0.0735019
-0.0158223
-0.0692132
-0.0167784
-0.0646666
-0.0177142
-0.0598529
-0.0186256
-0.0547733
-0.019498
-0.0494272
-0.0203197
-0.0438164
-0.0210844
-0.0379442
-0.0217831
-0.0318151
-0.0224136
-0.0254367
-0.0229731
-0.0188234
-0.0234657
-0.0120039
-0.0238956
-0.0050181
-0.024271
0.00208418
-0.0245963
0.00924707
-0.0248653
0.016418
-0.0250688
0.023556
-0.0251879
0.0306347
-0.0252008
0.0376334
-0.0250901
0.0445318
-0.0248461
0.0513056
-0.0244647
0.0579328
-0.0239493
0.0643866
-0.0233033
0.0706487
-0.0225446
0.0767016
-0.0216847
0.0825225
-0.0207387
0.0880984
-0.0197322
0.0934214
-0.018686
0.0984799
-0.0176222
0.103264
-0.016557
0.107764
-0.0155101
0.11197
-0.0144901
0.11587
-0.0135064
0.119467
-0.0125679
0.122758
-0.0116669
0.125759
-0.0108121
0.128479
-0.0099926
0.13095
-0.00921461
0.133187
-0.00846917
0.135207
-0.00776432
0.137027
-0.00710478
0.138674
-0.00649723
0.140169
-0.00593343
0.141529
-0.00541672
0.142765
-0.00493923
0.14389
-0.00449874
-0.00410108
-0.117037
-0.00798874
0.118892
-0.11502
-0.00872744
-0.112837
-0.00952107
-0.110478
-0.0103706
-0.107934
-0.0112764
-0.105195
-0.0122384
-0.102249
-0.0132558
-0.0990912
-0.0143209
-0.0957097
-0.0154323
-0.092095
-0.0165824
-0.0882384
-0.0177639
-0.0841317
-0.0189708
-0.0797664
-0.0201876
-0.0751379
-0.0214069
-0.070236
-0.0226161
-0.0650591
-0.0238025
-0.0596045
-0.0249526
-0.0538692
-0.026055
-0.0478581
-0.0270955
-0.0415723
-0.028069
-0.035023
-0.0289629
-0.028222
-0.0297742
-0.0211891
-0.0304987
-0.0139507
-0.0311341
-0.00654412
-0.0316776
0.000986501
-0.032127
0.00859582
-0.0324746
0.0162389
-0.0327119
0.0238749
-0.0328239
0.0314689
-0.0327949
0.038991
-0.0326122
0.0464117
-0.0322669
0.0537019
-0.0317549
0.0608368
-0.0310843
0.0677928
-0.0302593
0.0745403
-0.0292921
0.0810579
-0.0282024
0.087327
-0.0270079
0.0933282
-0.0257333
0.0990484
-0.0244063
0.104469
-0.0230426
0.109584
-0.0216722
0.114381
-0.0203071
0.118857
-0.0189662
0.123011
-0.0176606
0.126842
-0.0163985
0.130362
-0.0151871
0.13358
-0.0140298
0.136513
-0.0129257
0.139181
-0.0118828
0.141613
-0.0109009
0.143829
-0.00998075
0.145851
-0.00912677
0.147685
-0.00833159
0.149351
-0.00759924
0.150861
-0.00692688
0.152233
-0.00631079
0.153482
-0.0057475
-0.00523302
-0.125869
-0.00992455
0.127805
-0.123766
-0.0108308
-0.121489
-0.0117986
-0.119023
-0.0128367
-0.116354
-0.0139451
-0.113477
-0.0151151
-0.110379
-0.0163539
-0.107048
-0.0176519
-0.103473
-0.0190077
-0.0996458
-0.0204092
-0.095556
-0.0218537
-0.0911957
-0.023331
-0.086554
-0.0248294
-0.0816235
-0.0263374
-0.0764001
-0.0278395
-0.0708793
-0.0293234
-0.0650584
-0.0307735
-0.0589431
-0.0321702
-0.0525332
-0.0335054
-0.0458373
-0.034765
-0.0388628
-0.0359374
-0.0316276
-0.0370094
-0.0241517
-0.0379746
-0.0164641
-0.0388217
-0.00860136
-0.0395403
-0.000604856
-0.0401235
0.00748203
-0.0405616
0.0156177
-0.0408476
0.0237614
-0.0409676
0.0318753
-0.0409087
0.0399252
-0.0406622
0.047875
-0.0402166
0.0556934
-0.0395733
0.0633521
-0.0387431
0.0708188
-0.037726
0.0780695
-0.0365428
0.0850772
-0.0352101
0.0918093
-0.03374
0.0982486
-0.0321726
0.104374
-0.0305313
0.110173
-0.0288417
0.115629
-0.0271283
0.120738
-0.0254164
0.125493
-0.023721
0.129897
-0.0220644
0.133953
-0.0204553
0.137673
-0.0189064
0.14107
-0.017427
0.144167
-0.016023
0.146985
-0.0147004
0.149549
-0.0134651
0.151879
-0.0123105
0.153994
-0.0112423
0.155916
-0.0102529
0.157661
-0.00934464
0.159242
-0.00850807
0.160678
-0.0077462
0.161985
-0.00705525
-0.00641862
-0.136124
-0.0119871
0.138186
-0.133879
-0.0130757
-0.131441
-0.0142366
-0.128799
-0.0154789
-0.125942
-0.0168024
-0.122854
-0.0182027
-0.119527
-0.0196813
-0.115946
-0.0212328
-0.112107
-0.0228465
-0.107994
-0.0245217
-0.103603
-0.026245
-0.0989245
-0.0280096
-0.0939474
-0.0298065
-0.0886659
-0.0316189
-0.0830753
-0.0334301
-0.0771738
-0.0352248
-0.0709563
-0.0369911
-0.0644363
-0.0386903
-0.0576125
-0.0403293
-0.0504962
-0.0418813
-0.0430929
-0.0433406
-0.0354227
-0.0446796
-0.0275071
-0.0458902
-0.0193698
-0.0469589
-0.0110546
-0.0478556
-0.00259881
-0.0485793
0.00595201
-0.0491124
0.0145624
-0.049458
0.0231929
-0.0495982
0.0318026
-0.0495184
0.0403582
-0.0492178
0.0488124
-0.0486709
0.0571317
-0.0478926
0.0652869
-0.0468983
0.0732387
-0.0456779
0.080966
-0.0442701
0.0884382
-0.0426824
0.0956055
-0.0409073
0.102458
-0.0390252
0.108972
-0.0370454
0.115138
-0.035007
0.120936
-0.0329266
0.126363
-0.0308437
0.131413
-0.0287708
0.136094
-0.0267454
0.14041
-0.0247714
0.144374
-0.0228698
0.147996
-0.0210496
0.151302
-0.0193285
0.154313
-0.0177117
0.157048
-0.0162004
0.15954
-0.0148021
0.161801
-0.0135038
0.163857
-0.012309
0.165726
-0.0112132
0.167426
-0.010208
0.168971
-0.00929132
0.170373
-0.00845718
-0.00769021
-0.146552
-0.0141612
0.148726
-0.144195
-0.0154323
-0.14164
-0.0167918
-0.138862
-0.0182565
-0.135856
-0.0198092
-0.132597
-0.021461
-0.129086
-0.0231923
-0.125296
-0.0250227
-0.121212
-0.0269305
-0.11685
-0.0288838
-0.112185
-0.0309099
-0.107209
-0.032986
-0.101915
-0.0351003
-0.0962925
-0.0372417
-0.0903405
-0.039382
-0.0840504
-0.041515
-0.0774197
-0.0436217
-0.0704861
-0.0456239
-0.0632457
-0.0475697
-0.0557027
-0.0494242
-0.0478565
-0.0511869
-0.0397389
-0.0527972
-0.0313744
-0.0542548
-0.0227571
-0.0555762
-0.0139709
-0.0566417
-0.0050381
-0.0575121
0.00397849
-0.058129
0.0130687
-0.0585481
0.0221868
-0.0587164
0.0312877
-0.0586193
0.0403529
-0.0582831
0.0493024
-0.0576205
0.0581074
-0.0566975
0.0667662
-0.0555572
0.0751898
-0.0541014
0.0833936
-0.0524739
0.091363
-0.0506517
0.098965
-0.0485093
0.106233
-0.0462932
0.113148
-0.0439607
0.119692
-0.0415513
0.12586
-0.0390939
0.131617
-0.036601
0.136976
-0.0341299
0.141968
-0.0317376
0.146555
-0.0293586
0.150784
-0.0270988
0.154649
-0.0249144
0.158154
-0.0228336
0.161339
-0.0208966
0.164233
-0.0190947
0.166864
-0.0174328
0.169253
-0.0158927
0.171422
-0.0144779
0.173392
-0.0131835
0.175184
-0.0119995
0.176807
-0.0109147
0.178287
-0.00993673
-0.0090375
-0.158205
0.160474
-0.0164303
-0.155715
-0.0179231
-0.153005
-0.0195016
-0.150043
-0.0212184
-0.14683
-0.023022
-0.143331
-0.0249604
-0.139538
-0.0269854
-0.135484
-0.0290761
-0.131139
-0.0312759
-0.126408
-0.0336147
-0.121406
-0.0359113
-0.116076
-0.0383161
-0.110369
-0.0408078
-0.104375
-0.0432361
-0.0979976
-0.0457589
-0.0913537
-0.0481589
-0.0843671
-0.0506083
-0.0770075
-0.0529835
-0.0692712
-0.055306
-0.0612673
-0.0574281
-0.0529563
-0.059498
-0.0444317
-0.0613217
-0.0356482
-0.0630383
-0.0265473
-0.0646772
-0.0172849
-0.0659041
-0.0078895
-0.0669075
0.00155604
-0.0675745
0.0111293
-0.0681214
0.020764
-0.068351
0.0303057
-0.0681611
0.0398698
-0.0678471
0.0493132
-0.0670639
0.0585529
-0.0659373
0.0677128
-0.064717
0.0766417
-0.0630304
0.0853212
-0.0611534
0.0936374
-0.0589679
0.101573
-0.0564451
0.109307
-0.0540268
0.116618
-0.0512716
0.123546
-0.0484801
0.130127
-0.0456743
0.136269
-0.0427437
0.142005
-0.0398651
0.147338
-0.0370704
0.152245
-0.0342666
0.156751
-0.0316039
0.16085
-0.0290144
0.164667
-0.0266503
0.168134
-0.0243638
0.171265
-0.0222257
0.174095
-0.0202631
0.176647
-0.0184442
0.17899
-0.0168215
0.181117
-0.0153096
0.183038
-0.0139204
0.184776
-0.012653
0.186286
-0.0114466
-0.0104543
-0.0682583
0.00992121
-0.0770102
0.00875189
-0.0845824
0.00757218
-0.0909983
0.00641593
-0.0967668
0.00576862
-0.102294
0.00552731
-0.107637
0.0053431
-0.112817
0.00517957
-0.117837
0.00502088
-0.122315
0.00447745
-0.12564
0.00332573
-0.127512
0.00187166
-0.127994
0.000482129
-0.127484
-0.00050963
-0.126574
-0.00090961
-0.125574
-0.00100062
-0.124386
-0.00118786
-0.122698
-0.00168788
-0.120292
-0.00240509
-0.117281
-0.00301156
-0.113889
-0.00339112
-0.110222
-0.00366763
-0.106306
-0.00391611
-0.102191
-0.00411501
-0.0046101
-0.0722352
0.0183533
-0.0804511
0.0169677
-0.0881932
0.0153141
-0.09554
0.0137627
-0.102428
0.0126569
-0.108797
0.011896
-0.114686
0.0112319
-0.120045
0.010539
-0.124669
0.00964475
-0.128412
0.00822053
-0.131313
0.00622624
-0.133392
0.00395097
-0.134627
0.00171673
-0.134958
-0.000178738
-0.134341
-0.00152615
-0.132881
-0.0024606
-0.130764
-0.00330511
-0.128169
-0.00428306
-0.1252
-0.00537407
-0.121792
-0.00641908
-0.117842
-0.00734178
-0.113293
-0.00821574
-0.108085
-0.00912448
-0.10204
-0.0101597
-0.0115227
-0.0784869
0.0279101
-0.0875415
0.0260222
-0.0961335
0.023906
-0.104256
0.0218853
-0.111753
0.020154
-0.118527
0.0186693
-0.124548
0.0172535
-0.129761
0.0157513
-0.134095
0.0139791
-0.137623
0.0117481
-0.140457
0.00906057
-0.142635
0.00612866
-0.144146
0.00322784
-0.144915
0.000589926
-0.144807
-0.00163389
-0.143761
-0.00350649
-0.141857
-0.00520952
-0.139237
-0.00690293
-0.136007
-0.00860372
-0.13217
-0.0102568
-0.127682
-0.0118297
-0.122518
-0.0133798
-0.116668
-0.0149738
-0.11012
-0.0167085
-0.0187461
-0.0845368
0.0385173
-0.0944424
0.0359277
-0.103767
0.0332305
-0.112495
0.0306135
-0.120515
0.0281735
-0.127726
0.0258808
-0.134077
0.023604
-0.139534
0.0212084
-0.144097
0.0185422
-0.147845
0.0154958
-0.150875
0.0120909
-0.153227
0.0084798
-0.154867
0.00486789
-0.155725
0.00144809
-0.155684
-0.0016743
-0.15469
-0.00450133
-0.152764
-0.00713556
-0.149996
-0.00967052
-0.146454
-0.0121462
-0.142166
-0.0145443
-0.13711
-0.0168857
-0.131278
-0.0192122
-0.124668
-0.021584
-0.117312
-0.0240638
-0.0266651
-0.0905384
0.0500502
-0.101337
0.0467263
-0.111423
0.0433162
-0.120785
0.0399754
-0.129343
0.0367318
-0.137031
0.0335685
-0.143803
0.0303759
-0.149645
0.0270503
-0.154577
0.0234744
-0.15866
0.0195792
-0.161966
0.0153964
-0.164521
0.0110353
-0.16629
0.00663663
-0.167207
0.00236529
-0.167202
-0.00168001
-0.166212
-0.00549069
-0.164244
-0.00910347
-0.161356
-0.0125592
-0.1576
-0.0159014
-0.153014
-0.0191305
-0.147621
-0.0222792
-0.141448
-0.0253851
-0.134549
-0.0284834
-0.127008
-0.0316047
-0.0347806
-0.0965889
0.0623273
-0.108242
0.0583798
-0.119087
0.0541605
-0.129111
0.0499996
-0.138254
0.0458751
-0.146479
0.0417934
-0.153742
0.0376381
-0.160043
0.0333519
-0.16541
0.0288411
-0.169878
0.0240476
-0.173504
0.0190219
-0.176291
0.0138225
-0.17821
0.00855569
-0.179208
0.00336345
-0.179213
-0.00167505
-0.178198
-0.00650603
-0.176166
-0.0111355
-0.173138
-0.015587
-0.169169
-0.0198708
-0.164291
-0.0240086
-0.158549
-0.0280213
-0.151979
-0.0319548
-0.144621
-0.035841
-0.13653
-0.039696
-0.0435056
-0.102534
0.0756976
-0.115155
0.0710008
-0.126801
0.0658072
-0.137534
0.0607327
-0.147315
0.055656
-0.156133
0.0506107
-0.163927
0.0454329
-0.170728
0.0401521
-0.17655
0.0346636
-0.181424
0.0289218
-0.185391
0.0229888
-0.188451
0.0168819
-0.190553
0.0106579
-0.191649
0.00445919
-0.191704
-0.00161954
-0.190686
-0.0075242
-0.188594
-0.0132272
-0.185457
-0.0187244
-0.181311
-0.0240167
-0.176214
-0.0291055
-0.170208
-0.0340275
-0.163356
-0.0388069
-0.155692
-0.0435044
-0.147277
-0.0481112
-0.0525964
-0.108533
0.0904268
-0.122178
0.0846457
-0.13462
0.0782489
-0.146095
0.0722081
-0.156553
0.0661134
-0.166008
0.0600656
-0.174364
0.0537887
-0.181674
0.0474629
-0.187982
0.0409717
-0.19327
0.034209
-0.197582
0.0273013
-0.200944
0.0202434
-0.203251
0.0129647
-0.204479
0.00568773
-0.204601
-0.00149738
-0.20359
-0.0085353
-0.201457
-0.0153609
-0.19822
-0.0219612
-0.193919
-0.0283177
-0.188615
-0.0344098
-0.182358
-0.0402838
-0.175223
-0.0459426
-0.167214
-0.0515129
-0.158368
-0.056957
-0.0622387
-0.114976
0.106465
-0.129427
0.099097
-0.142554
0.0913764
-0.154789
0.0844424
-0.165962
0.0772872
-0.176125
0.0702287
-0.185056
0.0627191
-0.192889
0.0552957
-0.199693
0.0477756
-0.205427
0.039943
-0.210065
0.0319401
-0.213718
0.0238962
-0.216278
0.0155246
-0.217643
0.00705246
-0.217842
-0.00129782
-0.216859
-0.00951828
-0.214687
-0.0175338
-0.211383
-0.025265
-0.206929
-0.032772
-0.201373
-0.0399654
-0.194863
-0.0467936
-0.187436
-0.0533696
-0.179094
-0.0598547
-0.170115
-0.0659362
-0.0718795
1.36337
1.52978
0.277482
-1.80727
0.0730205
0.400135
-0.473148
0.28046
-0.377543
0.0970826
0.345888
-0.411365
0.0654767
-0.380818
-0.515233
0.896051
-0.43721
0.748684
-0.311474
1.98546
-2.03658
0.0511078
-0.0385309
-0.204339
0.24287
4.95884
-3.36182
-1.59701
-0.85472
1.80494
-0.950221
-0.832935
0.277999
0.554939
1.14685
-1.86674
0.71989
-1.13071
0.204848
0.925863
0.116945
-0.11905
0.00210422
4.27147
-4.07455
-0.196907
-0.405631
0.478664
0.136701
-0.0271707
-0.109531
-0.0267967
-0.0585496
0.341427
0.184711
-0.526137
-0.345682
0.224009
0.121673
2.88497
1.82106
-4.70602
-0.49716
0.819453
-0.322293
1.24926
-0.982122
-0.267141
-0.934608
0.317286
0.617322
1.07822
0.171043
-1.15992
0.743946
0.41597
-1.04137
0.188659
0.852706
4.59706
-2.58319
-2.01387
-0.0288184
-0.147606
0.176424
0.205954
0.483507
-0.689461
-0.212302
-0.562361
0.774641
0.788061
0.72744
-1.5155
2.63944
-4.82384
2.18442
-0.293644
-0.075524
0.369168
0.163813
1.39327
-1.55708
-0.900112
-0.2306
-2.6915
1.24061