/*--------------------------------*- C++ -*----------------------------------*\
  =========                 |
  \\      /  F ield         | OpenFOAM: The Open Source CFD Toolbox
   \\    /   O peration     | Website:  https://openfoam.org
    \\  /    A nd           | Version:  10
     \\/     M anipulation  |
\*---------------------------------------------------------------------------*/
FoamFile
{
    format      ascii;
    class       volVectorField;
    location    "1000";
    object      U;
}
// * * * * * * * * * * * * * * * * * * * * * * * * * * * * * * * * * * * * * //

dimensions      [0 1 -1 0 0 0 0];

internalField   nonuniform List<vector> 
10435
(
(1.59037 0.35146 5.17021e-23)
(1.6208 0.835962 1.47694e-21)
(3.43514 -0.252758 -2.01168e-20)
(2.23205 0.108279 2.40542e-20)
(3.26304 0.361493 -2.12587e-20)
(3.92993 -0.179765 1.83007e-19)
(3.32691 -0.237627 -6.79218e-20)
(2.91354 -0.238546 2.82962e-20)
(2.6275 -0.239351 7.85415e-20)
(3.8073 -0.32058 -5.30595e-20)
(2.03755 0.802893 -1.29369e-20)
(2.80779 -0.183104 7.74512e-20)
(3.7469 -0.306579 6.07264e-20)
(0.868905 0.602154 -1.34184e-21)
(0.954116 0.630685 -1.9572e-21)
(3.11612 -0.245344 -4.92688e-21)
(0.787483 0.550677 5.13722e-22)
(3.82418 -0.368767 2.18583e-19)
(2.51185 -0.235036 -2.78107e-20)
(1.70768 0.270378 -2.4334e-21)
(3.02424 -0.240086 2.42236e-20)
(2.19486 -0.0443754 -3.5637e-20)
(3.23771 -0.252081 2.08128e-19)
(2.57418 -0.2851 -3.6212e-20)
(3.68869 -0.303469 5.95632e-20)
(0.230611 0.379355 1.45018e-22)
(0.0469821 0.1033 6.33602e-22)
(3.59807 -0.273136 4.6744e-20)
(0.223512 -0.0368417 -1.51185e-22)
(3.83534 -0.354885 2.71666e-19)
(3.38034 -0.231623 8.69756e-20)
(2.28566 0.774089 -3.69214e-21)
(2.83284 -0.240851 -5.46496e-20)
(0.466235 -0.0109143 -6.3026e-22)
(2.83632 -0.2391 3.86352e-20)
(1.19869 0.876043 -2.66807e-21)
(2.94595 -0.241435 6.24774e-20)
(0.154856 0.290061 -3.00998e-21)
(0.362674 0.35871 -2.24291e-23)
(2.5446 -0.234692 9.23124e-21)
(3.88126 -0.372681 -2.95678e-19)
(3.33776 -0.250821 -5.76571e-20)
(0.584197 0.640073 -3.65894e-22)
(1.92973 0.256853 -2.7222e-20)
(3.10162 -0.240886 -1.43345e-19)
(2.5651 -0.254392 6.07725e-20)
(3.92699 -0.293339 -2.18637e-19)
(0.43265 0.516664 4.76873e-22)
(2.6035 -0.254593 2.14702e-20)
(2.15196 -0.175978 -1.22975e-20)
(2.93023 -0.240551 -4.86794e-21)
(3.66709 -0.157995 7.77357e-19)
(0.403557 0.377616 2.1051e-22)
(0.309435 -0.132934 -9.15438e-23)
(0.321976 0.365264 -8.73765e-23)
(0.172931 -0.0720249 3.80958e-22)
(2.82538 -0.246812 -1.73174e-19)
(0.160997 0.221998 -1.01532e-21)
(0.673382 0.312328 3.84918e-22)
(2.7148 -0.238456 9.83217e-20)
(0.362154 0.387729 -4.98534e-23)
(1.45366 0.850789 -7.11006e-21)
(0.176355 0.124371 1.35845e-21)
(3.54825 -0.0598758 -6.17444e-20)
(3.18496 -0.252317 -2.80952e-19)
(3.51885 -0.276007 1.66634e-19)
(0.610569 0.190241 -3.74386e-22)
(0.340138 0.288657 -3.756e-21)
(3.00288 -0.237094 -4.1784e-20)
(2.5405 -0.315469 2.58679e-21)
(0.261977 -0.158659 2.40627e-22)
(0.179509 0.359459 -1.06661e-22)
(0.664511 0.716798 1.1935e-20)
(3.44071 -0.265365 -2.06814e-19)
(1.04164 0.640758 -9.37942e-22)
(0.708216 0.76252 1.40446e-21)
(2.50531 -0.338644 1.42813e-19)
(3.26354 -0.228963 1.57173e-19)
(2.76935 -0.24482 7.12852e-21)
(1.1323 0.541792 3.79192e-21)
(2.31475 -0.294908 1.41378e-20)
(1.53895 0.315108 4.21144e-22)
(0.443192 0.396815 -4.35816e-23)
(0.350441 -0.113062 5.05726e-23)
(2.38281 -0.328138 -2.90508e-20)
(1.17246 0.791032 1.67843e-20)
(1.34892 0.647698 2.02885e-21)
(1.89848 0.431442 5.14304e-21)
(1.05846 0.744973 -2.78085e-22)
(1.46613 0.600356 -1.85045e-21)
(2.06914 0.374361 -3.45723e-21)
(2.27448 0.306638 -5.89599e-21)
(1.64359 0.229361 1.22377e-21)
(1.14411 0.726258 5.16843e-21)
(1.59669 0.546624 1.72424e-21)
(1.1016 0.884871 6.28673e-21)
(2.44804 0.204919 7.31767e-20)
(0.968729 0.717612 1.38132e-21)
(0.764718 0.410711 -6.5224e-22)
(2.73177 0.2122 -8.7127e-20)
(1.01139 0.733108 3.58501e-21)
(3.5881 0.432508 -8.09581e-20)
(1.24 0.691018 -3.52809e-21)
(1.74148 0.488809 -1.31006e-22)
(3.7473 0.278437 -5.25813e-21)
(2.0775 0.185274 -3.35745e-22)
(1.7497 0.138823 4.9383e-22)
(2.24019 -0.247344 1.58422e-20)
(2.44712 -0.340063 -4.14546e-20)
(1.22906 0.511427 -9.5072e-22)
(2.05778 -0.105876 -4.82824e-21)
(3.38715 0.606473 -3.22168e-20)
(1.43466 0.390887 -1.18812e-21)
(1.33182 0.460326 -7.9229e-22)
(2.55981 0.330695 -4.65351e-20)
(2.0742 0.0323864 9.82356e-21)
(2.85961 0.102243 -5.53622e-20)
(1.27592 0.764927 6.41673e-22)
(1.86026 0.620156 -1.86613e-20)
(2.71223 -0.0193634 -1.33891e-20)
(2.94024 0.0090755 -1.72554e-19)
(0.722689 0.806934 1.8621e-21)
(1.39243 0.734772 -1.11002e-20)
(0.888422 0.926969 -2.0815e-20)
(2.59459 0.96893 2.88515e-21)
(0.302268 0.388595 -1.99035e-22)
(2.59556 0.0747934 8.35969e-20)
(0.773358 0.859267 -2.5619e-21)
(3.07766 0.21808 -1.18739e-19)
(0.0756403 0.29403 3.57808e-22)
(0.827438 0.898744 6.91751e-21)
(2.30574 1.01044 -3.26479e-20)
(3.00512 -0.240824 -6.28344e-20)
(1.03967 0.548417 2.43224e-21)
(0.157798 0.326721 -3.95085e-24)
(0.579076 0.476988 5.8279e-23)
(1.03021 0.961614 2.08073e-20)
(2.37418 0.0149696 -2.71807e-21)
(1.68499 0.659817 5.14555e-21)
(1.95072 0.108632 7.53425e-21)
(1.82815 0.188666 3.99869e-22)
(3.27208 -0.235313 -3.17404e-19)
(0.541238 0.0985269 1.96087e-22)
(3.26476 -0.13288 5.84216e-19)
(2.30738 -0.123551 5.61835e-21)
(0.837167 0.788374 9.98231e-21)
(0.954939 0.950042 -6.81705e-21)
(3.75828 -0.0833956 -2.29762e-19)
(0.735567 0.627941 2.98108e-21)
(3.06831 -0.18825 3.40881e-20)
(0.378819 0.486966 1.08519e-21)
(3.00914 -0.242496 1.17862e-19)
(1.5321 0.469622 1.56236e-22)
(3.17259 -0.185335 2.62707e-19)
(3.79373 -0.216653 -2.00123e-19)
(0.318914 0.43977 -5.43642e-22)
(2.87609 0.872987 8.77276e-20)
(1.52864 0.698605 4.92016e-21)
(3.83785 -0.274788 -1.82127e-19)
(1.77089 1.01642 -4.04134e-21)
(3.14996 -0.230857 -4.97669e-20)
(0.952552 0.529195 -6.21735e-22)
(2.29056 0.518747 5.01409e-20)
(2.57613 -0.255857 4.32822e-20)
(1.14219 0.618362 3.09675e-21)
(3.15176 0.0719115 4.63695e-19)
(2.78054 -0.242249 -8.98768e-20)
(2.5969 -0.137263 -3.87913e-20)
(2.69184 -0.287024 6.83757e-20)
(3.33551 -0.0506748 -9.18842e-19)
(3.68527 -0.277944 1.97034e-19)
(0.63289 0.653684 -4.25331e-21)
(0.0312341 0.0296488 -5.93031e-22)
(0.901126 0.79645 9.68456e-22)
(2.91773 -0.242099 -1.1934e-19)
(1.55327 1.00457 4.78952e-21)
(1.31357 0.864357 1.64475e-20)
(0.544188 0.496055 5.95398e-22)
(1.95924 -0.0311469 2.66573e-21)
(0.276572 0.00628551 1.08041e-22)
(1.81535 0.819902 4.13251e-21)
(3.91681 -0.0534398 -3.00544e-20)
(2.97319 -0.182565 -2.89709e-19)
(0.347443 0.403366 -6.57754e-23)
(3.1977 -0.23128 4.31083e-20)
(0.536591 0.613454 2.67821e-21)
(0.668621 0.742787 -9.16352e-21)
(3.19253 -0.224587 -1.2415e-19)
(3.46637 0.255643 4.84929e-20)
(3.46299 -0.142651 -4.7618e-19)
(2.91356 -0.0884081 3.93477e-20)
(0.478972 0.417641 -3.2842e-24)
(0.101783 0.325553 -3.52814e-22)
(1.12074 0.96951 -1.894e-20)
(3.14782 0.749483 5.74283e-20)
(3.09176 -0.22629 6.67988e-21)
(0.697368 0.697689 7.14006e-21)
(1.08146 0.809947 -6.21176e-21)
(0.485149 0.519997 1.36789e-21)
(3.0413 -0.242172 9.92688e-20)
(1.0969 0.681216 -3.26964e-21)
(0.218412 0.343819 -4.2386e-22)
(3.67809 -0.288362 -1.43663e-20)
(0.207075 0.298829 -7.75427e-22)
(3.57698 -0.281803 -5.21073e-20)
(2.69443 0.44294 -8.3568e-22)
(2.0566 0.578074 3.1221e-20)
(2.49734 -0.0724939 -2.38657e-20)
(0.248069 0.109216 8.61558e-22)
(2.40489 -0.19032 -1.92486e-20)
(0.436706 0.518964 -2.72246e-22)
(3.32251 -0.255682 -2.78242e-19)
(3.09093 -0.0829604 4.77956e-19)
(2.6833 -0.251619 3.23278e-20)
(0.0783947 0.0850053 -1.43171e-22)
(0.810696 0.678322 -8.32774e-21)
(1.2602 0.560236 9.68008e-22)
(0.450653 0.467609 6.42602e-23)
(0.218783 0.366873 -4.75429e-22)
(0.866104 0.482001 4.02593e-22)
(0.325091 -0.028471 2.13908e-23)
(0.609261 0.461362 8.16901e-23)
(0.451133 0.134922 5.67525e-22)
(0.894192 0.850803 -2.12733e-20)
(0.259163 0.401657 -3.14371e-22)
(2.92923 -0.238999 -2.87479e-20)
(0.274073 0.360499 9.05848e-22)
(1.00431 0.814284 1.31487e-21)
(3.47949 -0.219891 5.57463e-19)
(0.76853 0.816391 -1.02789e-20)
(0.477597 0.375333 2.42406e-21)
(2.84857 -0.237065 1.11701e-19)
(0.248418 0.365334 1.51859e-21)
(2.93646 -0.245046 1.30467e-19)
(0.0634612 0.219041 -1.69039e-21)
(0.698824 0.488548 2.15765e-22)
(2.74482 -0.26509 -1.33693e-19)
(0.224431 0.38468 3.35892e-22)
(2.69595 -0.284135 -8.00813e-21)
(3.53096 -0.264552 3.23898e-21)
(1.79026 0.328202 7.39101e-21)
(0.307422 0.414624 -4.45141e-23)
(0.484317 0.503777 8.94859e-24)
(0.223309 -0.0947968 4.24405e-25)
(2.48827 0.50221 -9.97485e-20)
(2.71321 -0.245804 2.7454e-20)
(1.01823 0.887157 -2.47159e-20)
(3.06491 -0.227324 3.48276e-20)
(0.0854799 -0.0642788 -5.42676e-22)
(1.3734 0.989627 -4.47567e-21)
(0.149527 -0.122297 -7.00324e-22)
(1.20262 0.641699 -3.73304e-21)
(3.76146 -0.327317 -1.08798e-19)
(2.49002 -0.23661 -3.59413e-20)
(3.14097 -0.21555 -1.03127e-19)
(3.39297 0.0878407 2.17273e-19)
(0.0953606 -0.0964249 2.10462e-21)
(3.20342 -0.22258 1.53272e-19)
(0.394129 0.478906 1.37336e-23)
(0.301717 0.399122 6.42726e-22)
(3.27123 -0.225106 8.07762e-21)
(3.63429 -0.245777 8.69323e-22)
(0.273389 0.395685 -8.17423e-23)
(2.54152 -0.321495 -9.38653e-20)
(1.36579 0.49715 4.56471e-22)
(0.57496 0.351119 2.59598e-23)
(1.65672 0.400119 9.94906e-22)
(3.3486 -0.256719 1.73438e-19)
(0.427568 0.426862 1.71794e-23)
(2.87599 0.349276 1.95414e-20)
(3.33011 -0.226792 5.69434e-23)
(2.95411 -0.231368 -1.71486e-20)
(3.08055 -0.22253 -1.35494e-20)
(3.64215 -0.306314 -2.22334e-19)
(0.187111 0.370136 8.86343e-22)
(2.79354 -0.0786233 -6.7457e-20)
(0.119359 0.286135 1.53872e-21)
(3.04135 0.528684 1.62154e-20)
(3.12641 -0.233974 3.89008e-20)
(2.88326 -0.240522 6.37635e-21)
(3.73567 -0.32566 1.18428e-19)
(0.614489 0.610709 -7.18802e-21)
(3.3944 -0.236227 -5.29498e-21)
(0.958078 0.805842 -1.96151e-21)
(1.30324 0.592234 -1.76521e-21)
(0.503569 0.468594 -3.77768e-23)
(3.61132 0.107788 3.49897e-20)
(0.304675 0.348816 -4.2884e-23)
(0.39459 -0.0924214 2.75094e-22)
(0.390765 -0.0101325 -1.5842e-22)
(0.942531 0.876943 2.29673e-20)
(2.02316 1.02836 1.97148e-20)
(0.319586 0.0739812 -5.31824e-22)
(3.01227 -0.226648 3.49832e-20)
(0.347214 0.333764 -7.04333e-23)
(0.223904 -0.161827 -1.8651e-21)
(0.776484 0.754645 1.67552e-22)
(1.47714 0.42769 4.6062e-22)
(2.79159 0.648837 -3.18673e-21)
(3.51226 -0.267613 1.19284e-19)
(0.407408 0.40174 -6.2711e-21)
(2.66181 -0.302197 -3.10584e-20)
(3.45966 -0.247149 -1.82929e-21)
(0.0559643 -0.0322985 -6.73094e-22)
(2.53671 0.739064 -2.49447e-20)
(0.884464 0.709261 4.56579e-21)
(0.657066 0.561736 3.91149e-21)
(2.85352 -0.258985 -8.14859e-21)
(3.51587 -0.274704 -1.42383e-21)
(0.437704 -0.076862 -1.36925e-22)
(1.8543 0.0518069 1.86807e-21)
(0.221095 0.365349 4.792e-22)
(1.23067 0.978634 9.48924e-21)
(3.70162 0.025114 -1.11429e-19)
(2.69259 -0.235184 -1.54065e-20)
(0.188114 -0.144769 -4.3904e-22)
(0.367444 0.426055 -1.56841e-23)
(3.31733 -0.202409 -5.64122e-19)
(0.417301 0.264834 -7.8279e-23)
(2.69196 -0.173078 5.09497e-20)
(3.85821 0.0975993 -4.54008e-20)
(0.158585 0.0555239 -1.41714e-21)
(1.41481 0.534111 -4.47917e-22)
(0.514888 0.440082 3.00192e-22)
(2.80667 -0.242429 -3.19195e-21)
(3.67109 -0.305605 -4.92851e-20)
(0.16203 0.36912 4.34052e-22)
(3.52172 -0.255825 -2.55349e-22)
(0.506107 0.237433 -5.71451e-22)
(0.108565 0.221176 2.23243e-21)
(2.66218 -0.231504 6.64014e-22)
(0.47276 0.0400378 3.41163e-22)
(0.475499 -0.0634196 -1.07516e-22)
(3.40783 -0.244655 6.14583e-21)
(3.02122 -0.23116 1.18291e-19)
(0.223952 0.207221 2.76544e-21)
(0.177704 -0.128065 -7.49054e-22)
(0.0989908 -0.0857273 -4.17595e-22)
(0.523887 -0.024769 -3.24703e-23)
(0.060666 0.00152403 -1.24307e-22)
(0.139026 0.359366 -1.093e-21)
(0.238033 0.39314 -4.12775e-22)
(0.398183 0.403887 6.44037e-23)
(0.0256167 0.035525 7.63142e-22)
(0.038698 0.000199812 -9.99834e-22)
(0.304486 0.429054 2.66001e-22)
(0.289304 0.19083 -6.40126e-22)
(0.0153283 0.177763 2.26767e-22)
(0.54581 0.458908 -1.3989e-22)
(2.73685 -0.248406 -1.61167e-20)
(0.504462 -0.0473921 -1.50329e-22)
(3.63151 -0.302336 6.48593e-21)
(0.0231022 0.0710048 -2.39843e-22)
(3.59071 -0.26384 -1.01373e-21)
(2.75477 -0.247688 7.3906e-21)
(2.58393 -0.253319 -5.13245e-21)
(3.7312 -0.288819 -3.48648e-21)
(3.37377 -0.256232 -1.26316e-19)
(0.267013 -0.113695 -2.54733e-22)
(0.412175 -0.0528253 6.0477e-22)
(0.133582 -0.104802 4.10695e-23)
(0.261583 0.375731 -3.57272e-22)
(0.0960984 -0.0239497 -8.98359e-24)
(0.467481 0.448108 -2.59054e-24)
(0.109417 0.0490666 7.43474e-22)
(0.11774 0.344759 -6.26753e-22)
(0.273889 0.302683 5.86835e-21)
(2.81242 -0.243412 -9.05465e-21)
(0.125431 0.347145 5.71996e-22)
(2.67731 -0.249705 1.74975e-20)
(0.287089 0.369 -1.38751e-22)
(0.0984669 0.323205 8.90631e-22)
(3.74251 -0.298733 -2.86656e-20)
(2.52242 -0.260489 -1.42869e-20)
(0.534528 0.497104 8.64967e-22)
(0.0203345 0.115993 -7.90801e-22)
(0.121351 0.138321 -8.27959e-22)
(0.0338055 0.148316 9.10215e-23)
(0.360396 -0.0681192 -2.55292e-22)
(0.194847 0.376232 -1.48834e-23)
(0.0133061 0.15792 1.03328e-21)
(0.326523 0.377223 1.83459e-22)
(2.82869 -0.241672 -5.42899e-21)
(0.36174 0.163934 6.78753e-22)
(2.98737 -0.230201 3.74331e-21)
(2.69712 -0.248804 2.42858e-20)
(3.65771 -0.272595 -6.99485e-22)
(3.71144 -0.284565 5.31215e-20)
(2.64466 -0.249006 -1.03363e-20)
(3.5289 -0.264009 -1.48109e-20)
(2.76393 -0.232439 -2.12032e-20)
(0.82804 0.853196 6.33979e-22)
(0.528971 0.584219 -8.78971e-22)
(0.269108 -0.0662403 -4.65871e-22)
(0.216743 -0.139102 1.74682e-22)
(3.46968 -0.255294 1.96076e-20)
(0.310131 -0.0924395 6.99767e-22)
(3.75926 -0.31323 -1.25327e-19)
(0.0173493 0.182976 -1.16599e-22)
(0.213729 0.035165 9.2556e-23)
(0.0740168 0.290107 -1.85494e-22)
(0.395869 0.0585776 3.65706e-23)
(0.389809 0.454252 -2.41636e-22)
(3.23773 -0.238604 2.20394e-19)
(0.0814959 0.155214 3.82029e-22)
(2.90837 -0.235714 1.45056e-21)
(2.78354 -0.277792 -4.01148e-20)
(0.521316 0.543294 -5.44968e-23)
(0.165764 0.368175 -5.1545e-23)
(0.0541455 0.220274 3.39842e-22)
(2.51065 -0.257919 1.92909e-20)
(0.0672616 0.260163 -8.94731e-22)
(0.143727 0.358738 5.61268e-23)
(0.322071 0.429886 6.49111e-22)
(0.135764 -0.0463973 -9.89791e-23)
(0.34235 0.404017 -2.01319e-21)
(0.140846 0.0108173 -3.67181e-23)
(3.50495 -0.265682 1.15815e-19)
(0.208451 -0.16375 -4.66329e-23)
(0.188277 0.367539 -3.30158e-22)
(0.179773 -0.00741396 2.00866e-22)
(0.560185 0.0333639 -2.26576e-22)
(3.76058 -0.339452 -9.38122e-20)
(0.610783 0.561618 1.72878e-21)
(0.592141 0.503629 -3.47876e-21)
(2.44927 -0.256544 -2.22279e-20)
(0.45985 -0.043075 8.5275e-23)
(0.454966 -0.391927 1.04863e-21)
(0.479619 -0.386381 -7.24534e-23)
(0.534027 -0.394033 -5.63722e-22)
(0.571318 -0.401309 2.97736e-22)
(0.609988 -0.406702 -3.20909e-22)
(0.641301 -0.410225 -9.63611e-22)
(0.67146 -0.412491 2.08531e-22)
(0.697852 -0.414038 2.77268e-22)
(0.724243 -0.413832 2.8574e-22)
(0.487648 -0.382246 -6.92174e-22)
(0.512059 -0.378126 -5.70705e-23)
(0.563417 -0.384279 4.64032e-22)
(0.60091 -0.391766 -8.19566e-22)
(0.637742 -0.397282 7.3848e-22)
(0.668577 -0.40161 1.21711e-21)
(0.697493 -0.40458 -7.66003e-22)
(0.723369 -0.406734 7.8327e-22)
(0.747452 -0.407578 -3.89289e-22)
(0.521543 -0.366352 1.88876e-21)
(0.543662 -0.363765 4.44024e-22)
(0.592207 -0.369833 -9.3109e-22)
(0.629074 -0.377672 4.62222e-22)
(0.664476 -0.38361 -1.12939e-21)
(0.694778 -0.388627 -1.55237e-22)
(0.722799 -0.392353 -3.55141e-23)
(0.748002 -0.395269 -3.91019e-22)
(0.77126 -0.397304 -5.8959e-22)
(0.553816 -0.346215 -8.40975e-22)
(0.573355 -0.344741 2.06534e-22)
(0.619481 -0.351277 6.77284e-22)
(0.655588 -0.359651 4.18806e-23)
(0.689819 -0.366157 4.91486e-22)
(0.719598 -0.371796 1.34631e-21)
(0.746941 -0.376168 -8.06864e-22)
(0.771682 -0.379691 1.2427e-22)
(0.794685 -0.382403 2.83484e-22)
(0.583774 -0.322673 1.55555e-22)
(0.600386 -0.321839 -1.35285e-22)
(0.644345 -0.329159 2.50361e-23)
(0.679784 -0.338085 -2.34882e-22)
(0.713154 -0.345264 1.28603e-22)
(0.742573 -0.351508 -3.04981e-22)
(0.769529 -0.356479 1.09634e-22)
(0.794101 -0.360539 4.84765e-22)
(0.81722 -0.363564 9.88085e-23)
(0.610526 -0.296551 1.22096e-22)
(0.624118 -0.295864 -3.64007e-22)
(0.666187 -0.304216 7.34533e-23)
(0.701209 -0.313523 5.37055e-22)
(0.734033 -0.321369 -1.76104e-22)
(0.763273 -0.328173 -2.48977e-22)
(0.790061 -0.333739 -9.54355e-23)
(0.814642 -0.338361 -7.7617e-22)
(0.837766 -0.342147 3.75651e-22)
(0.63237 -0.269573 7.30018e-23)
(0.644194 -0.267821 2.6905e-22)
(0.684724 -0.277238 7.33619e-23)
(0.719629 -0.286498 -2.52818e-22)
(0.752161 -0.294864 5.37914e-23)
(0.781378 -0.30212 -4.17101e-23)
(0.808152 -0.308218 2.01509e-22)
(0.832814 -0.313366 -1.87747e-22)
(0.856042 -0.317808 -1.36999e-22)
(0.647722 -0.241935 -1.22985e-22)
(0.661036 -0.238187 2.20095e-22)
(0.700207 -0.248527 -3.16486e-23)
(0.735066 -0.257292 6.39005e-23)
(0.767398 -0.265992 -8.86331e-23)
(0.796678 -0.273571 2.98057e-22)
(0.823548 -0.280111 3.78738e-22)
(0.848363 -0.285771 -4.44354e-22)
(0.871847 -0.290319 1.34109e-22)
(0.657077 -0.210425 3.29397e-23)
(0.675308 -0.205956 3.37941e-23)
(0.712942 -0.217421 2.00532e-24)
(0.747531 -0.225758 -9.08424e-23)
(0.779625 -0.234771 -3.44161e-23)
(0.809004 -0.242599 -7.15501e-23)
(0.836049 -0.249485 -3.98712e-23)
(0.861121 -0.255447 4.49141e-22)
(0.884697 -0.260651 -3.96107e-23)
(0.662287 -0.173013 -3.17636e-23)
(0.686617 -0.169964 -1.75451e-22)
(0.72248 -0.183139 -6.11132e-23)
(0.756673 -0.191669 5.14938e-23)
(0.788596 -0.201152 -3.7343e-23)
(0.818178 -0.209205 1.28803e-22)
(0.845534 -0.216297 2.61058e-23)
(0.870972 -0.22236 2.53224e-22)
(0.894902 -0.227456 -2.74777e-23)
(0.664245 -0.131123 8.01377e-23)
(0.693588 -0.130642 3.51106e-23)
(0.727768 -0.145985 1.36712e-23)
(0.761885 -0.155265 8.07835e-23)
(0.793979 -0.165271 -2.99014e-23)
(0.824018 -0.173459 -1.80004e-23)
(0.851923 -0.180578 -7.92231e-23)
(0.877992 -0.186501 -2.93988e-22)
(0.902544 -0.191414 -5.7906e-23)
(0.663726 -0.0877251 -1.39147e-22)
(0.695237 -0.0904534 1.03636e-22)
(0.7281 -0.107595 -4.66306e-23)
(0.762814 -0.117399 4.99906e-23)
(0.795589 -0.127517 -9.60771e-24)
(0.826391 -0.135513 1.76329e-22)
(0.855065 -0.142358 2.2017e-23)
(0.881906 -0.147876 -1.48997e-22)
(0.907294 -0.153014 -1.12309e-22)
(0.659522 -0.0467376 -2.17829e-23)
(0.690476 -0.0526399 -1.99915e-23)
(0.723937 -0.069609 7.48839e-24)
(0.759814 -0.0789361 3.69185e-23)
(0.793614 -0.0882537 -2.41845e-23)
(0.825364 -0.095437 -3.41365e-23)
(0.854913 -0.101465 -6.57334e-23)
(0.882556 -0.106296 1.26318e-22)
(0.908986 -0.110354 -7.05555e-23)
(0.648217 -0.00932581 1.92893e-23)
(0.681424 -0.0166038 -6.52518e-24)
(0.716563 -0.0319449 -2.28654e-23)
(0.753636 -0.0398415 6.80817e-23)
(0.788471 -0.0474578 -1.25913e-23)
(0.821158 -0.0531541 -7.31811e-24)
(0.851581 -0.0577571 -5.25237e-23)
(0.880049 -0.0612919 5.70265e-24)
(0.907044 -0.0635459 5.07668e-23)
(0.631563 0.02712 -2.74273e-23)
(0.668824 0.0194444 2.02876e-23)
(0.70641 0.00647381 1.41395e-22)
(0.744647 0.000508297 -2.1602e-22)
(0.780386 -0.00483962 2.42642e-23)
(0.813888 -0.00856778 8.22384e-23)
(0.845114 -0.0113024 5.92113e-23)
(0.874415 -0.0130373 8.78815e-23)
(0.902187 -0.0136359 -3.26759e-22)
(0.609593 0.0642558 -7.1878e-23)
(0.65272 0.0566275 -1.28442e-22)
(0.693339 0.0467006 -2.28069e-22)
(0.732734 0.0427654 3.16531e-22)
(0.769242 0.0398488 1.08242e-22)
(0.803416 0.0382849 -5.77593e-23)
(0.835316 0.0376474 -1.0037e-23)
(0.86526 0.037972 2.64037e-22)
(0.893415 0.0390139 -1.09328e-22)
(0.583659 0.103728 2.71141e-24)
(0.632317 0.0961994 -1.70807e-22)
(0.676625 0.0893944 2.50211e-22)
(0.717304 0.0871748 -1.62258e-22)
(0.754591 0.0864638 -1.82808e-22)
(0.789397 0.0869971 7.1687e-22)
(0.821918 0.0884818 -4.92572e-22)
(0.852448 0.0909986 -2.16583e-22)
(0.881435 0.0936278 4.54059e-23)
(0.55788 0.143711 4.03751e-23)
(0.607284 0.137268 2.34956e-22)
(0.655317 0.133543 -1.21183e-22)
(0.697602 0.132879 1.88697e-22)
(0.735895 0.134129 4.84284e-23)
(0.771454 0.136654 -5.88031e-22)
(0.804639 0.140233 5.10461e-23)
(0.835727 0.14484 -3.03145e-22)
(0.865205 0.149841 -4.13773e-22)
(0.533943 0.180779 3.30031e-23)
(0.579709 0.176384 -4.55747e-23)
(0.629795 0.176521 -9.75432e-23)
(0.673611 0.17794 -5.60548e-22)
(0.713042 0.181301 1.51658e-22)
(0.749465 0.185881 2.463e-22)
(0.783378 0.191544 3.0724e-22)
(0.815112 0.198121 4.02157e-22)
(0.845144 0.205335 -2.05425e-22)
(0.510459 0.214109 -8.36863e-24)
(0.551037 0.211899 2.42339e-23)
(0.601479 0.21635 3.95393e-22)
(0.646139 0.220626 -2.9608e-23)
(0.686482 0.226486 2.21249e-22)
(0.723678 0.233362 -1.49753e-22)
(0.758252 0.24124 -1.2273e-21)
(0.790517 0.249925 -2.02728e-22)
(0.820887 0.259138 -2.03973e-24)
(0.486597 0.244564 -3.4309e-23)
(0.521765 0.243968 -2.66015e-22)
(0.571514 0.252347 1.97919e-22)
(0.616138 0.25995 -3.67379e-22)
(0.656933 0.268598 2.88281e-22)
(0.694634 0.277987 -4.72426e-23)
(0.729725 0.288181 3.27073e-22)
(0.762541 0.298955 3.26913e-22)
(0.793269 0.310714 -9.93731e-23)
(0.462171 0.271818 -2.15175e-22)
(0.491797 0.272643 3.28323e-22)
(0.540538 0.284235 -5.6863e-22)
(0.584345 0.295409 1.38509e-22)
(0.625041 0.306965 -7.72541e-22)
(0.662843 0.318987 2.48188e-22)
(0.698185 0.331538 1.05302e-22)
(0.731554 0.344343 -1.48877e-22)
(0.762166 0.359256 -1.17952e-22)
(0.437141 0.293968 -1.51986e-22)
(0.461403 0.297907 -3.07419e-22)
(0.509219 0.312165 2.43681e-22)
(0.551541 0.327058 3.4385e-22)
(0.591573 0.341452 5.02648e-22)
(0.628994 0.356049 -5.02392e-23)
(0.664199 0.370794 -1.72475e-22)
(0.697887 0.385625 6.3005e-22)
(0.728593 0.402923 -1.7714e-21)
(0.410844 0.310491 -1.55923e-22)
(0.430489 0.319546 2.69319e-22)
(0.476884 0.335931 -4.21644e-23)
(0.517079 0.354292 8.87793e-23)
(0.555923 0.371255 -3.05646e-22)
(0.592603 0.388391 -1.49422e-22)
(0.627409 0.405237 7.74244e-22)
(0.661688 0.422135 -8.38897e-22)
(0.693072 0.444057 1.40368e-21)
(0.38295 0.323452 -3.89693e-22)
(0.401391 0.34131 1.96336e-23)
(0.446572 0.360754 1.74526e-22)
(0.484873 0.381043 -1.12619e-22)
(0.52222 0.399564 1.49594e-23)
(0.557241 0.418088 -2.88941e-22)
(0.590678 0.435699 3.0442e-22)
(0.626142 0.45237 -1.95911e-22)
(0.659275 0.475998 2.92574e-23)
(0.359501 0.323499 -2.75746e-22)
(0.352769 0.321227 -3.29717e-22)
(0.345788 0.317937 -9.87417e-22)
(0.338055 0.314033 1.39209e-21)
(0.329443 0.309357 -1.05208e-21)
(0.319875 0.303879 7.93536e-22)
(0.309286 0.297555 3.16716e-22)
(0.29763 0.290344 -7.42473e-23)
(0.284893 0.28221 -5.83976e-22)
(0.271108 0.273122 -2.63793e-22)
(0.256351 0.26301 2.82436e-22)
(0.240733 0.251814 -3.28871e-22)
(0.224407 0.239484 8.83301e-22)
(0.207561 0.22598 -2.23306e-21)
(0.190402 0.211266 3.89877e-21)
(0.173163 0.195336 -4.4215e-21)
(0.156074 0.178211 3.96298e-21)
(0.139352 0.159945 -1.77504e-21)
(0.123181 0.140644 -5.77331e-22)
(0.107696 0.120488 6.13443e-22)
(0.0929127 0.0997176 -2.12298e-22)
(0.0786513 0.0786478 4.5651e-22)
(0.0647141 0.0579055 3.43208e-23)
(0.0515721 0.037675 -6.32792e-22)
(0.0415526 0.0171385 4.9881e-22)
(0.0364099 -0.00420085 -2.72754e-22)
(0.0359869 -0.0266425 3.45334e-22)
(0.0400276 -0.0503951 2.76483e-22)
(0.0456612 -0.0755693 -3.30488e-22)
(0.0510963 -0.101683 8.87885e-24)
(0.0572118 -0.127967 -2.98016e-22)
(0.0646565 -0.154039 2.67973e-22)
(0.0736902 -0.179652 5.05307e-22)
(0.084262 -0.204483 -4.0435e-22)
(0.0962201 -0.22821 5.71214e-22)
(0.109365 -0.250617 -9.51848e-22)
(0.123438 -0.271498 7.10669e-23)
(0.13816 -0.290691 2.05378e-22)
(0.153257 -0.308083 -3.04479e-22)
(0.16848 -0.323596 6.78004e-22)
(0.183635 -0.337203 -3.86433e-22)
(0.198602 -0.348942 -1.65187e-21)
(0.213282 -0.358876 3.35061e-21)
(0.227945 -0.366945 -3.59246e-21)
(0.243294 -0.373077 3.11326e-21)
(0.259575 -0.37747 -1.82719e-21)
(0.276533 -0.380525 9.41004e-22)
(0.293853 -0.382596 -3.18928e-22)
(0.311215 -0.383951 3.05657e-22)
(0.328243 -0.384831 -3.15759e-22)
(0.3446 -0.385454 -4.59306e-22)
(0.360049 -0.385984 -1.44286e-22)
(0.374433 -0.386525 2.31223e-22)
(0.387636 -0.387136 5.97294e-22)
(0.399586 -0.38784 -8.88639e-22)
(0.41027 -0.38864 1.15174e-21)
(0.419726 -0.389511 -7.7433e-22)
(0.428048 -0.39037 -2.73084e-22)
(0.435504 -0.391141 -1.95025e-22)
(0.372101 0.279886 -1.80871e-23)
(0.365861 0.276385 -1.14729e-23)
(0.359269 0.272579 -7.08247e-24)
(0.352176 0.268391 -1.27437e-23)
(0.344515 0.263855 -5.34161e-23)
(0.336195 0.258996 1.05678e-22)
(0.327115 0.25383 -2.13467e-23)
(0.31718 0.248352 6.46481e-23)
(0.306336 0.242543 -1.47952e-22)
(0.294632 0.236235 -3.41203e-23)
(0.282147 0.22925 1.03006e-22)
(0.268914 0.221514 4.16184e-23)
(0.254976 0.212911 -2.23368e-22)
(0.240418 0.203332 3.15633e-22)
(0.225363 0.192674 -3.25793e-22)
(0.209959 0.180846 1.67911e-22)
(0.194373 0.167782 2.14517e-22)
(0.178784 0.153442 -6.92237e-23)
(0.163366 0.137812 3.02634e-23)
(0.148279 0.120901 3.68596e-23)
(0.133676 0.102713 7.35779e-24)
(0.119755 0.0831857 -8.45682e-23)
(0.106959 0.0621058 9.96042e-23)
(0.0960213 0.0390406 -7.06951e-23)
(0.0877018 0.0140856 2.31178e-22)
(0.0821707 -0.0122433 -8.89133e-23)
(0.079617 -0.0392289 -5.50057e-24)
(0.0801853 -0.0661272 3.58917e-23)
(0.0834913 -0.0924291 1.94735e-23)
(0.0884963 -0.1182 -1.31846e-24)
(0.0948831 -0.143596 -3.40308e-23)
(0.102769 -0.168518 -2.22395e-24)
(0.112203 -0.19274 -8.89549e-24)
(0.123043 -0.216043 1.69162e-23)
(0.135113 -0.238234 -1.01342e-22)
(0.148229 -0.259155 4.64428e-23)
(0.162192 -0.278691 -2.73494e-23)
(0.176803 -0.296774 -1.29024e-23)
(0.191891 -0.313377 1.38224e-24)
(0.207326 -0.328504 -2.93875e-23)
(0.223033 -0.342172 -2.6677e-23)
(0.239001 -0.354401 4.06584e-23)
(0.25529 -0.365203 -1.66622e-22)
(0.27201 -0.374536 -1.32548e-22)
(0.289182 -0.382286 2.1115e-22)
(0.306643 -0.388363 -1.74373e-22)
(0.32411 -0.392769 8.1172e-23)
(0.341051 -0.395806 1.67644e-23)
(0.356974 -0.397802 -5.26356e-23)
(0.371823 -0.398819 3.03122e-23)
(0.385702 -0.398928 5.16996e-23)
(0.398611 -0.39831 -1.53041e-23)
(0.410493 -0.397219 2.0899e-23)
(0.421268 -0.395896 -7.25652e-23)
(0.430972 -0.394493 1.28339e-23)
(0.439732 -0.393088 3.50819e-23)
(0.447681 -0.391753 -5.16254e-23)
(0.454835 -0.390511 8.91094e-24)
(0.461463 -0.389373 -1.68088e-23)
(0.431247 0.260343 -2.7e-22)
(0.425075 0.256867 5.66124e-23)
(0.418487 0.253082 -2.27496e-22)
(0.411458 0.24902 -5.11119e-23)
(0.403925 0.24467 7.82648e-22)
(0.395831 0.240028 -2.42984e-22)
(0.387126 0.235069 -4.7631e-22)
(0.377767 0.229747 -3.72904e-25)
(0.36773 0.223982 2.85453e-22)
(0.357004 0.217673 -7.10527e-23)
(0.345574 0.210766 7.73113e-22)
(0.333431 0.203193 -9.27944e-22)
(0.320597 0.194871 8.41108e-22)
(0.307121 0.185707 -1.16854e-22)
(0.293085 0.175603 -7.61243e-22)
(0.278599 0.164458 2.37779e-22)
(0.263804 0.152179 9.15693e-22)
(0.248861 0.13868 -3.55791e-22)
(0.233955 0.123883 -9.11478e-23)
(0.219288 0.107713 2.04743e-23)
(0.205095 0.0900891 -2.43267e-22)
(0.191664 0.0709206 5.50463e-23)
(0.179382 0.0501241 -6.34639e-22)
(0.168746 0.0276964 7.64436e-22)
(0.16035 0.00381186 -2.92484e-22)
(0.154661 -0.0212039 8.55118e-24)
(0.151876 -0.0469488 4.20445e-23)
(0.151944 -0.0729489 -1.82327e-22)
(0.154492 -0.0987315 1.16803e-22)
(0.159025 -0.124045 6.06646e-23)
(0.165228 -0.148818 1.36309e-22)
(0.172938 -0.172959 -1.43128e-22)
(0.182038 -0.196325 6.14807e-23)
(0.192398 -0.218765 8.164e-23)
(0.203871 -0.24015 -2.90374e-22)
(0.216304 -0.260369 7.98729e-22)
(0.229544 -0.279338 -5.2045e-22)
(0.243447 -0.297 -1.10972e-22)
(0.257897 -0.31332 -1.3255e-22)
(0.272807 -0.328275 -4.34071e-23)
(0.288122 -0.341849 -2.03077e-22)
(0.303808 -0.354018 -3.5595e-22)
(0.319838 -0.364749 8.41676e-22)
(0.336166 -0.373993 3.96047e-22)
(0.352686 -0.381705 -8.0971e-22)
(0.369202 -0.387888 -2.66153e-22)
(0.385445 -0.392613 8.39155e-22)
(0.401161 -0.396058 -9.76603e-22)
(0.416108 -0.39848 6.80719e-22)
(0.430054 -0.400179 -2.33509e-23)
(0.443043 -0.401216 2.83013e-22)
(0.455192 -0.401592 5.74075e-23)
(0.466398 -0.401497 -4.42036e-22)
(0.47663 -0.401108 -2.25049e-22)
(0.485985 -0.400522 6.97077e-22)
(0.494559 -0.399798 -7.829e-24)
(0.502434 -0.398981 -1.92838e-22)
(0.509695 -0.398106 6.28547e-23)
(0.516437 -0.397185 -2.24978e-22)
(0.472036 0.249324 -3.09177e-23)
(0.465859 0.246456 1.94998e-22)
(0.459279 0.243323 -8.96316e-23)
(0.452227 0.239877 6.3513e-23)
(0.444663 0.236102 -6.6317e-23)
(0.43655 0.23198 5.42848e-24)
(0.427851 0.22748 -4.13168e-23)
(0.418532 0.222565 -9.59459e-23)
(0.408567 0.217184 6.16757e-23)
(0.397942 0.211283 8.95175e-23)
(0.386652 0.2048 5.60423e-23)
(0.374706 0.197655 -2.74876e-22)
(0.362131 0.189761 2.45213e-22)
(0.348976 0.181015 -7.20281e-23)
(0.335312 0.17131 2.76952e-23)
(0.321243 0.160534 -1.63018e-22)
(0.306899 0.148576 1.67286e-22)
(0.292442 0.135329 -7.86706e-23)
(0.278064 0.120695 -1.40958e-22)
(0.26399 0.104587 6.07255e-23)
(0.250481 0.0869303 -2.92468e-23)
(0.237838 0.0676745 -2.64644e-22)
(0.226412 0.0468078 1.55947e-22)
(0.216585 0.0243909 1.84671e-22)
(0.20873 0.000597763 -1.44414e-22)
(0.203137 -0.0242798 1.73074e-23)
(0.199974 -0.0498741 1.63822e-22)
(0.199275 -0.0757862 -1.89511e-22)
(0.200916 -0.101647 6.20112e-23)
(0.204665 -0.127187 -1.67699e-23)
(0.210302 -0.152225 7.83364e-23)
(0.217638 -0.176613 -1.81325e-22)
(0.226508 -0.200212 1.34741e-22)
(0.236744 -0.222893 -5.43913e-24)
(0.248181 -0.244541 -1.62934e-22)
(0.26066 -0.265055 5.36454e-23)
(0.274026 -0.284355 1.78272e-22)
(0.288136 -0.302373 -6.4202e-23)
(0.302866 -0.319055 -7.5279e-23)
(0.318106 -0.334357 1.31266e-22)
(0.333758 -0.348238 -2.57802e-23)
(0.349725 -0.360659 -4.41043e-23)
(0.365898 -0.371586 2.72851e-22)
(0.382149 -0.380994 -2.51562e-22)
(0.398318 -0.388883 1.09234e-22)
(0.414223 -0.395293 -5.47426e-24)
(0.429676 -0.400309 3.27532e-22)
(0.444505 -0.404066 -2.9199e-22)
(0.458584 -0.406711 1.3528e-22)
(0.471742 -0.408535 1.17356e-22)
(0.483829 -0.40977 1.42491e-22)
(0.494985 -0.41044 -1.53897e-22)
(0.505354 -0.410572 -3.19974e-23)
(0.514995 -0.410259 -5.33753e-23)
(0.523967 -0.409597 -8.73808e-23)
(0.532291 -0.408685 6.02548e-23)
(0.539976 -0.407607 -1.20167e-22)
(0.54708 -0.406416 2.44889e-22)
(0.553683 -0.405165 -6.70879e-23)
(0.525673 0.243237 -3.83634e-22)
(0.519659 0.240179 4.28267e-23)
(0.513142 0.236868 3.66369e-22)
(0.506097 0.233291 -2.61311e-22)
(0.498483 0.229415 6.70069e-23)
(0.490273 0.225215 2.31442e-22)
(0.481443 0.22066 -2.84582e-22)
(0.471974 0.21571 1.09206e-22)
(0.461855 0.210315 3.50774e-22)
(0.451085 0.204419 -1.11591e-22)